       N       E                     dE             d eps       ncg     rms          rms(c)
DAV:   1     0.427219588310E+03    0.42722E+03   -0.18529E+04   772   0.113E+03
DAV:   2    -0.175414134798E+02   -0.44476E+03   -0.41398E+03   736   0.428E+02
DAV:   3    -0.599267497676E+02   -0.42385E+02   -0.41338E+02  1104   0.122E+02
DAV:   4    -0.612883613581E+02   -0.13616E+01   -0.13568E+01   976   0.238E+01
DAV:   5    -0.613566278481E+02   -0.68266E-01   -0.68250E-01  1060   0.485E+00    0.100E+02
DAV:   6    -0.481415394695E+02    0.13215E+02   -0.49690E+01  1076   0.708E+01    0.118E+02
DAV:   7    -0.461894753061E+02    0.19521E+01   -0.10466E+01  1040   0.362E+01    0.837E+01
DAV:   8    -0.518675392783E+02   -0.56781E+01   -0.20783E+01   996   0.349E+01    0.658E+01
DAV:   9    -0.462487650642E+02    0.56188E+01   -0.42647E+01   888   0.638E+01    0.242E+01
DAV:  10    -0.459832469271E+02    0.26552E+00   -0.11897E+00  1064   0.911E+00    0.138E+01
DAV:  11    -0.459875609726E+02   -0.43140E-02   -0.38650E-02   980   0.157E+00    0.113E+01
DAV:  12    -0.459976643845E+02   -0.10103E-01   -0.24366E-03  1116   0.509E-01    0.132E+01
