 vasp.6.1.1 19Jun20 (build Jul 17 2020 22:48:28) complex                        
  
 executed on             LinuxIFC date 2020.11.10  22:32:11
 running on    4 total cores
 distrk:  each k-point on    2 cores,    2 groups
 distr:  one band on NCORE=   1 cores,    2 groups


--------------------------------------------------------------------------------------------------------


 INCAR:
 POTCAR:    PAW Sr_sv_GW 23Mar2010                
 POTCAR:    PAW V_sv_GW 31Mar2010                 
 POTCAR:    PAW O_GW 28Sep2005                    
 POTCAR:    PAW Sr_sv_GW 23Mar2010                
   VRHFIN =Sr: 4d2 5s0                                                                              
   LEXCH  = PE                                                                                      
   EATOM  =   838.2651 eV,   61.6107 Ry                                                             
                                                                                                    
   TITEL  = PAW Sr_sv_GW 23Mar2010                                                                  
   LULTRA =        F    use ultrasoft PP ?                                                          
   IUNSCR =        1    unscreen: 0-lin 1-nonlin 2-no                                               
   RPACOR =    2.200    partial core radius                                                         
   POMASS =   87.620; ZVAL   =   10.000    mass and valenz                                          
   RCORE  =    2.800    outmost cutoff radius                                                       
   RWIGS  =    2.800; RWIGS  =    1.482    wigner-seitz radius (au A)                               
   ENMAX  =  224.817; ENMIN  =  168.613 eV                                                          
   RCLOC  =    1.802    cutoff for local pot                                                        
   LCOR   =        T    correct aug charges                                                         
   LPAW   =        T    paw PP                                                                      
   EAUG   =  540.414                                                                                
   DEXC   =    0.000                                                                                
   RMAX   =    2.872    core radius for proj-oper                                                   
   RAUG   =    1.300    factor for augmentation sphere                                              
   RDEP   =    2.912    radius for radial grids                                                     
   RDEPT  =    2.240    core radius for aug-charge                                                  
                                                                                                    
   Atomic configuration                                                                             
   10 entries                                                                                       
     n  l   j            E        occ.                                                              
     1  0  0.50    -15933.7704   2.0000                                                             
     2  0  0.50     -2156.2816   2.0000                                                             
     2  1  1.50     -1915.6777   6.0000                                                             
     3  0  0.50      -332.3976   2.0000                                                             
     3  1  1.50      -254.7654   6.0000                                                             
     3  2  2.50      -126.6450  10.0000                                                             
     4  0  0.50       -39.5448   2.0000                                                             
     4  1  1.50       -21.6129   6.0000                                                             
     4  2  1.50        -0.8832   2.0000                                                             
     4  3  2.50        -1.3606   0.0000                                                             
   Description                                                                                      
     l       E           TYP  RCUT    TYP  RCUT                                                     
     0    -39.5447968     23  1.700                                                                 
     0    -40.9053794     23  1.700                                                                 
     0     95.2407820     23  1.700                                                                 
     1    -21.6129136     23  2.100                                                                 
     1     54.4233040     23  2.100                                                                 
     2     -0.8832165     23  2.500                                                                 
     2      4.1126727     23  2.500                                                                 
     3     -1.3605826     23  2.800                                                                 
  local pseudopotential read in
  partial core-charges read in
  partial kinetic energy density read in
  kinetic energy density of atom read in
  atomic valenz-charges read in
  non local Contribution for L=           0  read in
    real space projection operators read in
  non local Contribution for L=           0  read in
    real space projection operators read in
  non local Contribution for L=           0  read in
    real space projection operators read in
  non local Contribution for L=           1  read in
    real space projection operators read in
  non local Contribution for L=           1  read in
    real space projection operators read in
  non local Contribution for L=           2  read in
    real space projection operators read in
  non local Contribution for L=           2  read in
    real space projection operators read in
  non local Contribution for L=           3  read in
    real space projection operators read in
    PAW grid and wavefunctions read in
 
   number of l-projection  operators is LMAX  =           8
   number of lm-projection operators is LMMAX =          26
 
 POTCAR:    PAW V_sv_GW 31Mar2010                 
   VRHFIN =V: 3s3p4s3d                                                                              
   LEXCH  = PE                                                                                      
   EATOM  =  1950.1203 eV,  143.3298 Ry                                                             
                                                                                                    
   TITEL  = PAW V_sv_GW 31Mar2010                                                                   
   LULTRA =        F    use ultrasoft PP ?                                                          
   IUNSCR =        1    unscreen: 0-lin 1-nonlin 2-no                                               
   RPACOR =    2.000    partial core radius                                                         
   POMASS =   50.941; ZVAL   =   13.000    mass and valenz                                          
   RCORE  =    2.100    outmost cutoff radius                                                       
   RWIGS  =    2.600; RWIGS  =    1.376    wigner-seitz radius (au A)                               
   ENMAX  =  323.070; ENMIN  =  242.302 eV                                                          
   RCLOC  =    1.202    cutoff for local pot                                                        
   LCOR   =        T    correct aug charges                                                         
   LPAW   =        T    paw PP                                                                      
   EAUG   =  598.473                                                                                
   RMAX   =    2.143    core radius for proj-oper                                                   
   RAUG   =    1.300    factor for augmentation sphere                                              
   RDEP   =    2.138    radius for radial grids                                                     
   RDEPT  =    1.693    core radius for aug-charge                                                  
                                                                                                    
   Atomic configuration                                                                             
    7 entries                                                                                       
     n  l   j            E        occ.                                                              
     1  0  0.50     -5359.0293   2.0000                                                             
     2  0  0.50      -596.3999   2.0000                                                             
     2  1  1.50      -496.9961   6.0000                                                             
     3  0  0.50       -64.6841   2.0000                                                             
     3  1  1.50       -38.7271   6.0000                                                             
     3  2  2.50        -1.1796   5.0000                                                             
     4  3  2.50        -1.3606   0.0000                                                             
   Description                                                                                      
     l       E           TYP  RCUT    TYP  RCUT                                                     
     0    -64.6840945     23  1.400                                                                 
     0    -66.0446771     23  1.400                                                                 
     0     68.0291300     23  1.600                                                                 
     1    -38.7271150     23  1.800                                                                 
     1    -40.0876976     23  1.800                                                                 
     2     -1.1796160     23  2.100                                                                 
     2     -2.5401986     23  2.100                                                                 
  local pseudopotential read in
  partial core-charges read in
  partial kinetic energy density read in
  kinetic energy density of atom read in
  atomic valenz-charges read in
  non local Contribution for L=           0  read in
    real space projection operators read in
  non local Contribution for L=           0  read in
    real space projection operators read in
  non local Contribution for L=           0  read in
    real space projection operators read in
  non local Contribution for L=           1  read in
    real space projection operators read in
  non local Contribution for L=           1  read in
    real space projection operators read in
  non local Contribution for L=           2  read in
    real space projection operators read in
  non local Contribution for L=           2  read in
    real space projection operators read in
    PAW grid and wavefunctions read in
 
   number of l-projection  operators is LMAX  =           7
   number of lm-projection operators is LMMAX =          19
 
 POTCAR:    PAW O_GW 28Sep2005                    
   VRHFIN =O: s2p4                                                                                  
   LEXCH  = PE                                                                                      
   EATOM  =   432.3788 eV,   31.7789 Ry                                                             
                                                                                                    
   TITEL  = PAW O_GW 28Sep2005                                                                      
   LULTRA =        F    use ultrasoft PP ?                                                          
   IUNSCR =        0    unscreen: 0-lin 1-nonlin 2-no                                               
   RPACOR =    0.000    partial core radius                                                         
   POMASS =   16.000; ZVAL   =    6.000    mass and valenz                                          
   RCORE  =    1.520    outmost cutoff radius                                                       
   RWIGS  =    1.550; RWIGS  =    0.820    wigner-seitz radius (au A)                               
   ENMAX  =  414.635; ENMIN  =  310.976 eV                                                          
   ICORE  =        2    local potential                                                             
   LCOR   =        T    correct aug charges                                                         
   LPAW   =        T    paw PP                                                                      
   EAUG   =  605.392                                                                                
   DEXC   =    0.000                                                                                
   RMAX   =    1.553    core radius for proj-oper                                                   
   RAUG   =    1.300    factor for augmentation sphere                                              
   RDEP   =    1.550    radius for radial grids                                                     
   RDEPT  =    1.329    core radius for aug-charge                                                  
                                                                                                    
   Atomic configuration                                                                             
    4 entries                                                                                       
     n  l   j            E        occ.                                                              
     1  0  0.50      -514.6923   2.0000                                                             
     2  0  0.50       -23.9615   2.0000                                                             
     2  1  0.50        -9.0305   4.0000                                                             
     3  2  1.50        -9.5241   0.0000                                                             
   Description                                                                                      
     l       E           TYP  RCUT    TYP  RCUT                                                     
     0    -23.9615316     23  1.200                                                                 
     0     81.6349560     23  1.200                                                                 
     1     -9.0304908     23  1.520                                                                 
     1     81.6349560     23  1.520                                                                 
     2     -9.5240782      7  1.500                                                                 
  local pseudopotential read in
  kinetic energy density of atom read in
  atomic valenz-charges read in
  non local Contribution for L=           0  read in
    real space projection operators read in
  non local Contribution for L=           0  read in
    real space projection operators read in
  non local Contribution for L=           1  read in
    real space projection operators read in
  non local Contribution for L=           1  read in
    real space projection operators read in
    PAW grid and wavefunctions read in
 
   number of l-projection  operators is LMAX  =           4
   number of lm-projection operators is LMMAX =           8
 
  PAW Sr_sv_GW 23Mar2010                :
 energy of atom  1       EATOM= -838.2651
 kinetic energy error for atom=    0.0086 (will be added to EATOM!!)
  PAW V_sv_GW 31Mar2010                 :
 energy of atom  2       EATOM=-1950.1203
 kinetic energy error for atom=    0.0790 (will be added to EATOM!!)
  PAW O_GW 28Sep2005                    :
 energy of atom  3       EATOM= -432.3788
 kinetic energy error for atom=    0.0826 (will be added to EATOM!!)
 
 
 POSCAR: SrVO3 # PBE 3rd order fit  (6x6x6 k-poin
  positions in direct lattice
  No initial velocities read in
 exchange correlation table for  LEXCH =        8
   RHO(1)=    0.500       N(1)  =     2000
   RHO(2)=  100.500       N(2)  =     4000
 


--------------------------------------------------------------------------------------------------------


 ion  position               nearest neighbor table
   1  0.000  0.000  0.000-   3 2.72   4 2.72   5 2.72   4 2.72   5 2.72   3 2.72   5 2.72   5 2.72
                             3 2.72   4 2.72   4 2.72   3 2.72   2 3.33   2 3.33   2 3.33   2 3.33
   2  0.500  0.500  0.500-   3 1.92   4 1.92   5 1.92   3 1.92   4 1.92   5 1.92   1 3.33   1 3.33
                             1 3.33   1 3.33   1 3.33   1 3.33   1 3.33   1 3.33
   3  0.500  0.500  0.000-   2 1.92   2 1.92   1 2.72   1 2.72   1 2.72   1 2.72
   4  0.500  0.000  0.500-   2 1.92   2 1.92   1 2.72   1 2.72   1 2.72   1 2.72
   5  0.000  0.500  0.500-   2 1.92   2 1.92   1 2.72   1 2.72   1 2.72   1 2.72
 
  LATTYP: Found a simple cubic cell.
 ALAT       =     3.8465200000
  
  Lattice vectors:
  
 A1 = (   3.8465200000,   0.0000000000,   0.0000000000)
 A2 = (   0.0000000000,   3.8465200000,   0.0000000000)
 A3 = (   0.0000000000,   0.0000000000,   3.8465200000)


Analysis of symmetry for initial positions (statically):
=====================================================================
 Subroutine PRICEL returns:
 Original cell was already a primitive cell.
 

 Routine SETGRP: Setting up the symmetry group for a 
 simple cubic supercell.


 Subroutine GETGRP returns: Found 48 space group operations
 (whereof 48 operations were pure point group operations)
 out of a pool of 48 trial point group operations.


The static configuration has the point symmetry O_h .


Analysis of symmetry for dynamics (positions and initial velocities):
=====================================================================
 Subroutine PRICEL returns:
 Original cell was already a primitive cell.
 

 Routine SETGRP: Setting up the symmetry group for a 
 simple cubic supercell.


 Subroutine GETGRP returns: Found 48 space group operations
 (whereof 48 operations were pure point group operations)
 out of a pool of 48 trial point group operations.


The dynamic configuration has the point symmetry O_h .


 Subroutine INISYM returns: Found 48 space group operations
 (whereof 48 operations are pure point group operations),
 and found     1 'primitive' translations


----------------------------------------------------------------------------------------

                                     Primitive cell                                     

  volume of cell :      56.9120

  direct lattice vectors                    reciprocal lattice vectors
     3.846520000  0.000000000  0.000000000     0.259975250  0.000000000  0.000000000
     0.000000000  3.846520000  0.000000000     0.000000000  0.259975250  0.000000000
     0.000000000  0.000000000  3.846520000     0.000000000  0.000000000  0.259975250

  length of vectors
     3.846520000  3.846520000  3.846520000     0.259975250  0.259975250  0.259975250

  position of ions in fractional coordinates (direct lattice)
     0.000000000  0.000000000  0.000000000
     0.500000000  0.500000000  0.500000000
     0.500000000  0.500000000  0.000000000
     0.500000000  0.000000000  0.500000000
     0.000000000  0.500000000  0.500000000

  ion indices of the primitive-cell ions
   primitive index   ion index
                 1           1
                 2           2
                 3           3
                 4           4
                 5           5

----------------------------------------------------------------------------------------

 
 
 KPOINTS: Automatically generated mesh            

Automatic generation of k-mesh.
Space group operators:
 irot       det(A)        alpha          n_x          n_y          n_z        tau_x        tau_y        tau_z
    1     1.000000     0.000000     1.000000     0.000000     0.000000     0.000000     0.000000     0.000000
    2    -1.000000     0.000000     1.000000     0.000000     0.000000     0.000000     0.000000     0.000000
    3     1.000000   120.000000    -0.577350    -0.577350    -0.577350     0.000000     0.000000     0.000000
    4    -1.000000   120.000000    -0.577350    -0.577350    -0.577350     0.000000     0.000000     0.000000
    5     1.000000   120.000000     0.577350     0.577350     0.577350     0.000000     0.000000     0.000000
    6    -1.000000   120.000000     0.577350     0.577350     0.577350     0.000000     0.000000     0.000000
    7     1.000000    90.000000     0.000000     0.000000    -1.000000     0.000000     0.000000     0.000000
    8    -1.000000    90.000000     0.000000     0.000000    -1.000000     0.000000     0.000000     0.000000
    9     1.000000   180.000000     0.000000     0.707107     0.707107     0.000000     0.000000     0.000000
   10    -1.000000   180.000000     0.000000     0.707107     0.707107     0.000000     0.000000     0.000000
   11     1.000000    90.000000     0.000000     1.000000     0.000000     0.000000     0.000000     0.000000
   12    -1.000000    90.000000     0.000000     1.000000     0.000000     0.000000     0.000000     0.000000
   13     1.000000   180.000000     0.000000     0.000000     1.000000     0.000000     0.000000     0.000000
   14    -1.000000   180.000000     0.000000     0.000000     1.000000     0.000000     0.000000     0.000000
   15     1.000000   120.000000    -0.577350     0.577350     0.577350     0.000000     0.000000     0.000000
   16    -1.000000   120.000000    -0.577350     0.577350     0.577350     0.000000     0.000000     0.000000
   17     1.000000   120.000000    -0.577350     0.577350    -0.577350     0.000000     0.000000     0.000000
   18    -1.000000   120.000000    -0.577350     0.577350    -0.577350     0.000000     0.000000     0.000000
   19     1.000000    90.000000     0.000000     0.000000     1.000000     0.000000     0.000000     0.000000
   20    -1.000000    90.000000     0.000000     0.000000     1.000000     0.000000     0.000000     0.000000
   21     1.000000    90.000000    -1.000000     0.000000     0.000000     0.000000     0.000000     0.000000
   22    -1.000000    90.000000    -1.000000     0.000000     0.000000     0.000000     0.000000     0.000000
   23     1.000000   180.000000     0.707107     0.000000     0.707107     0.000000     0.000000     0.000000
   24    -1.000000   180.000000     0.707107     0.000000     0.707107     0.000000     0.000000     0.000000
   25     1.000000   120.000000     0.577350    -0.577350     0.577350     0.000000     0.000000     0.000000
   26    -1.000000   120.000000     0.577350    -0.577350     0.577350     0.000000     0.000000     0.000000
   27     1.000000   120.000000    -0.577350    -0.577350     0.577350     0.000000     0.000000     0.000000
   28    -1.000000   120.000000    -0.577350    -0.577350     0.577350     0.000000     0.000000     0.000000
   29     1.000000   180.000000     1.000000     0.000000     0.000000     0.000000     0.000000     0.000000
   30    -1.000000   180.000000     1.000000     0.000000     0.000000     0.000000     0.000000     0.000000
   31     1.000000    90.000000     0.000000    -1.000000     0.000000     0.000000     0.000000     0.000000
   32    -1.000000    90.000000     0.000000    -1.000000     0.000000     0.000000     0.000000     0.000000
   33     1.000000   180.000000     0.707107     0.707107     0.000000     0.000000     0.000000     0.000000
   34    -1.000000   180.000000     0.707107     0.707107     0.000000     0.000000     0.000000     0.000000
   35     1.000000    90.000000     1.000000     0.000000     0.000000     0.000000     0.000000     0.000000
   36    -1.000000    90.000000     1.000000     0.000000     0.000000     0.000000     0.000000     0.000000
   37     1.000000   120.000000     0.577350    -0.577350    -0.577350     0.000000     0.000000     0.000000
   38    -1.000000   120.000000     0.577350    -0.577350    -0.577350     0.000000     0.000000     0.000000
   39     1.000000   180.000000     0.000000     1.000000     0.000000     0.000000     0.000000     0.000000
   40    -1.000000   180.000000     0.000000     1.000000     0.000000     0.000000     0.000000     0.000000
   41     1.000000   120.000000     0.577350     0.577350    -0.577350     0.000000     0.000000     0.000000
   42    -1.000000   120.000000     0.577350     0.577350    -0.577350     0.000000     0.000000     0.000000
   43     1.000000   180.000000     0.000000    -0.707107     0.707107     0.000000     0.000000     0.000000
   44    -1.000000   180.000000     0.000000    -0.707107     0.707107     0.000000     0.000000     0.000000
   45     1.000000   180.000000     0.707107    -0.707107     0.000000     0.000000     0.000000     0.000000
   46    -1.000000   180.000000     0.707107    -0.707107     0.000000     0.000000     0.000000     0.000000
   47     1.000000   180.000000     0.707107     0.000000    -0.707107     0.000000     0.000000     0.000000
   48    -1.000000   180.000000     0.707107     0.000000    -0.707107     0.000000     0.000000     0.000000
 
 Subroutine IBZKPT returns following result:
 ===========================================
 
 Found     10 irreducible k-points:
 
 Following reciprocal coordinates:
            Coordinates               Weight
  0.000000  0.000000  0.000000      1.000000
  0.250000  0.000000  0.000000      6.000000
  0.500000  0.000000  0.000000      3.000000
  0.250000  0.250000  0.000000     12.000000
  0.500000  0.250000  0.000000     12.000000
  0.500000  0.500000  0.000000      3.000000
  0.250000  0.250000  0.250000      8.000000
  0.500000  0.250000  0.250000     12.000000
  0.500000  0.500000  0.250000      6.000000
  0.500000  0.500000  0.500000      1.000000
 
 Following cartesian coordinates:
            Coordinates               Weight
  0.000000  0.000000  0.000000      1.000000
  0.250000  0.000000  0.000000      6.000000
  0.500000  0.000000  0.000000      3.000000
  0.250000  0.250000  0.000000     12.000000
  0.500000  0.250000  0.000000     12.000000
  0.500000  0.500000  0.000000      3.000000
  0.250000  0.250000  0.250000      8.000000
  0.500000  0.250000  0.250000     12.000000
  0.500000  0.500000  0.250000      6.000000
  0.500000  0.500000  0.500000      1.000000
 


--------------------------------------------------------------------------------------------------------




 Dimension of arrays:
   k-points           NKPTS =     10   k-points in BZ     NKDIM =     10   number of bands    NBANDS=     36
   number of dos      NEDOS =    301   number of ions     NIONS =      5
   non local maximal  LDIM  =      8   non local SUM 2l+1 LMDIM =     26
   total plane-waves  NPLWV =   8000
   max r-space proj   IRMAX =      1   max aug-charges    IRDMAX=   8441
   dimension x,y,z NGX =    20 NGY =   20 NGZ =   20
   dimension x,y,z NGXF=    40 NGYF=   40 NGZF=   40
   support grid    NGXF=    40 NGYF=   40 NGZF=   40
   ions per type =               1   1   3
   NGX,Y,Z   is equivalent  to a cutoff of   8.64,  8.64,  8.64 a.u.
   NGXF,Y,Z  is equivalent  to a cutoff of  17.29, 17.29, 17.29 a.u.

 SYSTEM =  SrVO3                                   
 POSCAR =  SrVO3 # PBE 3rd order fit  (6x6x6 k-poin

 Startparameter for this run:
   NWRITE =      2    write-flag & timer
   PREC   = normal    normal or accurate (medium, high low for compatibility)
   ISTART =      0    job   : 0-new  1-cont  2-samecut
   ICHARG =      2    charge: 1-file 2-atom 10-const
   ISPIN  =      1    spin polarized calculation?
   LNONCOLLINEAR =      F non collinear calculations
   LSORBIT =      F    spin-orbit coupling
   INIWAV =      1    electr: 0-lowe 1-rand  2-diag
   LASPH  =      F    aspherical Exc in radial PAW
   METAGGA=      F    non-selfconsistent MetaGGA calc.

 Electronic Relaxation 1
   ENCUT  =  414.6 eV  30.47 Ry    5.52 a.u.   6.39  6.39  6.39*2*pi/ulx,y,z
   ENINI  =  414.6     initial cutoff
   ENAUG  =  605.4 eV  augmentation charge cutoff
   NELM   =     60;   NELMIN=  2; NELMDL= -5     # of ELM steps 
   EDIFF  = 0.1E-07   stopping-criterion for ELM
   LREAL  =      F    real-space projection
   NLSPLINE    = F    spline interpolate recip. space projectors
   LCOMPAT=      F    compatible to vasp.4.4
   GGA_COMPAT  = T    GGA compatible to vasp.4.4-vasp.4.6
   LMAXPAW     = -100 max onsite density
   LMAXMIX     =    2 max onsite mixed and CHGCAR
   VOSKOWN=      0    Vosko Wilk Nusair interpolation
   ROPT   =    0.00000   0.00000   0.00000
 Ionic relaxation
   EDIFFG = 0.1E-06   stopping-criterion for IOM
   NSW    =      0    number of steps for IOM
   NBLOCK =      1;   KBLOCK =      1    inner block; outer block 
   IBRION =     -1    ionic relax: 0-MD 1-quasi-New 2-CG
   NFREE  =      0    steps in history (QN), initial steepest desc. (CG)
   ISIF   =      2    stress and relaxation
   IWAVPR =     10    prediction:  0-non 1-charg 2-wave 3-comb
   ISYM   =      2    0-nonsym 1-usesym 2-fastsym
   LCORR  =      T    Harris-Foulkes like correction to forces

   POTIM  = 0.5000    time-step for ionic-motion
   TEIN   =    0.0    initial temperature
   TEBEG  =    0.0;   TEEND  =   0.0 temperature during run
   SMASS  =  -3.00    Nose mass-parameter (am)
   estimated Nose-frequenzy (Omega)   =  0.10E-29 period in steps = 0.13E+47 mass=  -0.338E-27a.u.
   SCALEE = 1.0000    scale energy and forces
   NPACO  =    256;   APACO  = 16.0  distance and # of slots for P.C.
   PSTRESS=    0.0 pullay stress

  Mass of Ions in am
   POMASS =  87.62 50.94 16.00
  Ionic Valenz
   ZVAL   =  10.00 13.00  6.00
  Atomic Wigner-Seitz radii
   RWIGS  =  -1.00 -1.00 -1.00
  virtual crystal weights 
   VCA    =   1.00  1.00  1.00
   NELECT =      41.0000    total number of electrons
   NUPDOWN=      -1.0000    fix difference up-down

 DOS related values:
   EMIN   =  10.00;   EMAX   =-10.00  energy-range for DOS
   EFERMI =   0.00
   ISMEAR =     0;   SIGMA  =   0.20  broadening in eV -4-tet -1-fermi 0-gaus

 Electronic relaxation 2 (details)
   IALGO  =     38    algorithm
   LDIAG  =      T    sub-space diagonalisation (order eigenvalues)
   LSUBROT=      F    optimize rotation matrix (better conditioning)
   TURBO    =      0    0=normal 1=particle mesh
   IRESTART =      0    0=no restart 2=restart with 2 vectors
   NREBOOT  =      0    no. of reboots
   NMIN     =      0    reboot dimension
   EREF     =   0.00    reference energy to select bands
   IMIX   =      4    mixing-type and parameters
     AMIX     =   0.40;   BMIX     =  1.00
     AMIX_MAG =   1.60;   BMIX_MAG =  1.00
     AMIN     =   0.10
     WC   =   100.;   INIMIX=   1;  MIXPRE=   1;  MAXMIX= -45

 Intra band minimization:
   WEIMIN = 0.0000     energy-eigenvalue tresh-hold
   EBREAK =  0.69E-10  absolut break condition
   DEPER  =   0.30     relativ break condition  

   TIME   =   0.40     timestep for ELM

  volume/ion in A,a.u.               =      11.38        76.81
  Fermi-wavevector in a.u.,A,eV,Ry     =   1.467579  2.773322 29.304062  2.153788
  Thomas-Fermi vector in A             =   2.583180
 
 Write flags
   LWAVE        =      T    write WAVECAR
   LDOWNSAMPLE  =      F    k-point downsampling of WAVECAR
   LCHARG       =      T    write CHGCAR
   LVTOT        =      F    write LOCPOT, total local potential
   LVHAR        =      F    write LOCPOT, Hartree potential only
   LELF         =      F    write electronic localiz. function (ELF)
   LORBIT       =      0    0 simple, 1 ext, 2 COOP (PROOUT), +10 PAW based schemes


 Dipole corrections
   LMONO  =      F    monopole corrections only (constant potential shift)
   LDIPOL =      F    correct potential (dipole corrections)
   IDIPOL =      0    1-x, 2-y, 3-z, 4-all directions 
   EPSILON=  1.0000000 bulk dielectric constant

 Exchange correlation treatment:
   GGA     =    --    GGA type
   LEXCH   =     8    internal setting for exchange type
   VOSKOWN=      0    Vosko Wilk Nusair interpolation
   LHFCALC =     F    Hartree Fock is set to
   LHFONE  =     F    Hartree Fock one center treatment
   AEXX    =    0.0000 exact exchange contribution

 Linear response parameters
   LEPSILON=     F    determine dielectric tensor
   LRPA    =     F    only Hartree local field effects (RPA)
   LNABLA  =     F    use nabla operator in PAW spheres
   LVEL    =     F    velocity operator in full k-point grid
   LINTERFAST=   F  fast interpolation
   KINTER  =     0    interpolate to denser k-point grid
   CSHIFT  =0.1000    complex shift for real part using Kramers Kronig
   OMEGAMAX=  -1.0    maximum frequency
   DEG_THRESHOLD= 0.2000000E-02 threshold for treating states as degnerate
   RTIME   =   -0.100 relaxation time in fs
  (WPLASMAI=    0.000 imaginary part of plasma frequency in eV, 0.658/RTIME)
   DFIELD  = 0.0000000 0.0000000 0.0000000 field for delta impulse in time
 
 Orbital magnetization related:
   ORBITALMAG=     F  switch on orbital magnetization
   LCHIMAG   =     F  perturbation theory with respect to B field
   DQ        =  0.001000  dq finite difference perturbation B field
   LLRAUG    =     F  two centre corrections for induced B field



--------------------------------------------------------------------------------------------------------


 Static calculation
 charge density and potential will be updated during run
 non-spin polarized calculation
 Variant of blocked Davidson
 Davidson routine will perform the subspace rotation
 perform sub-space diagonalisation
    after iterative eigenvector-optimisation
 modified Broyden-mixing scheme, WC =      100.0
 initial mixing is a Kerker type mixing with AMIX =  0.4000 and BMIX =      1.0000
 Hartree-type preconditioning will be used
 using additional bands           15
 reciprocal scheme for non local part
 use partial core corrections
 calculate Harris-corrections to forces 
   (improved forces if not selfconsistent)
 use gradient corrections 
 use of overlap-Matrix (Vanderbilt PP)
 Gauss-broadening in eV      SIGMA  =   0.20


--------------------------------------------------------------------------------------------------------


  energy-cutoff  :      414.63
  volume of cell :       56.91
      direct lattice vectors                 reciprocal lattice vectors
     3.846520000  0.000000000  0.000000000     0.259975250  0.000000000  0.000000000
     0.000000000  3.846520000  0.000000000     0.000000000  0.259975250  0.000000000
     0.000000000  0.000000000  3.846520000     0.000000000  0.000000000  0.259975250

  length of vectors
     3.846520000  3.846520000  3.846520000     0.259975250  0.259975250  0.259975250


 
 k-points in units of 2pi/SCALE and weight: Automatically generated mesh            
   0.00000000  0.00000000  0.00000000       0.016
   0.25000000  0.00000000  0.00000000       0.094
   0.50000000  0.00000000  0.00000000       0.047
   0.25000000  0.25000000  0.00000000       0.188
   0.50000000  0.25000000  0.00000000       0.188
   0.50000000  0.50000000  0.00000000       0.047
   0.25000000  0.25000000  0.25000000       0.125
   0.50000000  0.25000000  0.25000000       0.188
   0.50000000  0.50000000  0.25000000       0.094
   0.50000000  0.50000000  0.50000000       0.016
 
 k-points in reciprocal lattice and weights: Automatically generated mesh            
   0.00000000  0.00000000  0.00000000       0.016
   0.25000000  0.00000000  0.00000000       0.094
   0.50000000  0.00000000  0.00000000       0.047
   0.25000000  0.25000000  0.00000000       0.188
   0.50000000  0.25000000  0.00000000       0.188
   0.50000000  0.50000000  0.00000000       0.047
   0.25000000  0.25000000  0.25000000       0.125
   0.50000000  0.25000000  0.25000000       0.188
   0.50000000  0.50000000  0.25000000       0.094
   0.50000000  0.50000000  0.50000000       0.016
 
 position of ions in fractional coordinates (direct lattice) 
   0.00000000  0.00000000  0.00000000
   0.50000000  0.50000000  0.50000000
   0.50000000  0.50000000  0.00000000
   0.50000000  0.00000000  0.50000000
   0.00000000  0.50000000  0.50000000
 
 position of ions in cartesian coordinates  (Angst):
   0.00000000  0.00000000  0.00000000
   1.92326000  1.92326000  1.92326000
   1.92326000  1.92326000  0.00000000
   1.92326000  0.00000000  1.92326000
   0.00000000  1.92326000  1.92326000
 


--------------------------------------------------------------------------------------------------------


 k-point   1 :   0.0000 0.0000 0.0000  plane waves:    1045
 k-point   2 :   0.2500 0.0000 0.0000  plane waves:    1097
 k-point   3 :   0.5000 0.0000 0.0000  plane waves:    1108
 k-point   4 :   0.2500 0.2500 0.0000  plane waves:    1103
 k-point   5 :   0.5000 0.2500 0.0000  plane waves:    1090
 k-point   6 :   0.5000 0.5000 0.0000  plane waves:    1092
 k-point   7 :   0.2500 0.2500 0.2500  plane waves:    1093
 k-point   8 :   0.5000 0.2500 0.2500  plane waves:    1078
 k-point   9 :   0.5000 0.5000 0.2500  plane waves:    1084
 k-point  10 :   0.5000 0.5000 0.5000  plane waves:    1088

 maximum and minimum number of plane-waves per node :      1108     1045

 maximum number of plane-waves:      1108
 maximum index in each direction: 
   IXMAX=    6   IYMAX=    6   IZMAX=    6
   IXMIN=   -6   IYMIN=   -6   IZMIN=   -6


 serial   3D FFT for wavefunctions
 parallel 3D FFT for charge:
    minimum data exchange during FFTs selected (reduces bandwidth)


 total amount of memory used by VASP MPI-rank0    44165. kBytes
=======================================================================

   base      :      30000. kBytes
   nonl-proj :       7002. kBytes
   fftplans  :       1158. kBytes
   grid      :       2451. kBytes
   one-center:        162. kBytes
   wavefun   :       3392. kBytes
 
     INWAV:  cpu time    0.0000: real time    0.0003
 Broyden mixing: mesh for mixing (old mesh)
   NGX = 13   NGY = 13   NGZ = 13
  (NGX  = 40   NGY  = 40   NGZ  = 40)
  gives a total of   2197 points

 initial charge density was supplied:
 charge density of overlapping atoms calculated
 number of electron      41.0000000 magnetization 
 keeping initial charge density in first step


--------------------------------------------------------------------------------------------------------


 Maximum index for augmentation-charges         4053 (set IRDMAX)


--------------------------------------------------------------------------------------------------------


 First call to EWALD:  gamma=   0.461
 Maximum number of real-space cells 3x 3x 3
 Maximum number of reciprocal cells 3x 3x 3

    FEWALD:  cpu time    0.0000: real time    0.0017


--------------------------------------- Iteration      1(   1)  ---------------------------------------


    POTLOK:  cpu time    0.0280: real time    0.0284
    SETDIJ:  cpu time    0.0040: real time    0.0050
     EDDAV:  cpu time    0.2440: real time    0.2438
       DOS:  cpu time    0.0000: real time    0.0005
    --------------------------------------------
      LOOP:  cpu time    0.2760: real time    0.2777

 eigenvalue-minimisations  :   772
 total energy-change (2. order) : 0.4272196E+03  (-0.1852925E+04)
 number of electron      41.0000000 magnetization 
 augmentation part       41.0000000 magnetization 

 Free energy of the ion-electron system (eV)
  ---------------------------------------------------
  alpha Z        PSCENC =       203.55814167
  Ewald energy   TEWEN  =     -3104.54515132
  -Hartree energ DENC   =     -1030.79084955
  -exchange      EXHF   =         0.00000000
  -V(xc)+E(xc)   XCENC  =       193.04027408
  PAW double counting   =      3268.09820801    -3251.64734538
  entropy T*S    EENTRO =        -0.02506255
  eigenvalues    EBANDS =        64.34500081
  atomic energy  EATOM  =      4085.18637255
  Solvation  Ediel_sol  =         0.00000000
  ---------------------------------------------------
  free energy    TOTEN  =       427.21958831 eV

  energy without entropy =      427.24465086  energy(sigma->0) =      427.23211958


--------------------------------------------------------------------------------------------------------




--------------------------------------- Iteration      1(   2)  ---------------------------------------


     EDDAV:  cpu time    0.2360: real time    0.2344
       DOS:  cpu time    0.0000: real time    0.0004
    --------------------------------------------
      LOOP:  cpu time    0.2360: real time    0.2349

 eigenvalue-minimisations  :   736
 total energy-change (2. order) :-0.4447610E+03  (-0.4139814E+03)
 number of electron      41.0000000 magnetization 
 augmentation part       41.0000000 magnetization 

 Free energy of the ion-electron system (eV)
  ---------------------------------------------------
  alpha Z        PSCENC =       203.55814167
  Ewald energy   TEWEN  =     -3104.54515132
  -Hartree energ DENC   =     -1030.79084955
  -exchange      EXHF   =         0.00000000
  -V(xc)+E(xc)   XCENC  =       193.04027408
  PAW double counting   =      3268.09820801    -3251.64734538
  entropy T*S    EENTRO =        -0.04769136
  eigenvalues    EBANDS =      -380.39337217
  atomic energy  EATOM  =      4085.18637255
  Solvation  Ediel_sol  =         0.00000000
  ---------------------------------------------------
  free energy    TOTEN  =       -17.54141348 eV

  energy without entropy =      -17.49372212  energy(sigma->0) =      -17.51756780


--------------------------------------------------------------------------------------------------------




--------------------------------------- Iteration      1(   3)  ---------------------------------------


     EDDAV:  cpu time    0.2720: real time    0.2743
       DOS:  cpu time    0.0000: real time    0.0005
    --------------------------------------------
      LOOP:  cpu time    0.2720: real time    0.2747

 eigenvalue-minimisations  :  1104
 total energy-change (2. order) :-0.4238534E+02  (-0.4133803E+02)
 number of electron      41.0000000 magnetization 
 augmentation part       41.0000000 magnetization 

 Free energy of the ion-electron system (eV)
  ---------------------------------------------------
  alpha Z        PSCENC =       203.55814167
  Ewald energy   TEWEN  =     -3104.54515132
  -Hartree energ DENC   =     -1030.79084955
  -exchange      EXHF   =         0.00000000
  -V(xc)+E(xc)   XCENC  =       193.04027408
  PAW double counting   =      3268.09820801    -3251.64734538
  entropy T*S    EENTRO =        -0.06023191
  eigenvalues    EBANDS =      -422.76616790
  atomic energy  EATOM  =      4085.18637255
  Solvation  Ediel_sol  =         0.00000000
  ---------------------------------------------------
  free energy    TOTEN  =       -59.92674977 eV

  energy without entropy =      -59.86651785  energy(sigma->0) =      -59.89663381


--------------------------------------------------------------------------------------------------------




--------------------------------------- Iteration      1(   4)  ---------------------------------------


     EDDAV:  cpu time    0.2400: real time    0.2395
       DOS:  cpu time    0.0000: real time    0.0005
    --------------------------------------------
      LOOP:  cpu time    0.2400: real time    0.2400

 eigenvalue-minimisations  :   976
 total energy-change (2. order) :-0.1361612E+01  (-0.1356783E+01)
 number of electron      41.0000000 magnetization 
 augmentation part       41.0000000 magnetization 

 Free energy of the ion-electron system (eV)
  ---------------------------------------------------
  alpha Z        PSCENC =       203.55814167
  Ewald energy   TEWEN  =     -3104.54515132
  -Hartree energ DENC   =     -1030.79084955
  -exchange      EXHF   =         0.00000000
  -V(xc)+E(xc)   XCENC  =       193.04027408
  PAW double counting   =      3268.09820801    -3251.64734538
  entropy T*S    EENTRO =        -0.06571378
  eigenvalues    EBANDS =      -424.12229763
  atomic energy  EATOM  =      4085.18637255
  Solvation  Ediel_sol  =         0.00000000
  ---------------------------------------------------
  free energy    TOTEN  =       -61.28836136 eV

  energy without entropy =      -61.22264758  energy(sigma->0) =      -61.25550447


--------------------------------------------------------------------------------------------------------




--------------------------------------- Iteration      1(   5)  ---------------------------------------


     EDDAV:  cpu time    0.2640: real time    0.2656
       DOS:  cpu time    0.0040: real time    0.0005
    CHARGE:  cpu time    0.0160: real time    0.0179
    MIXING:  cpu time    0.0000: real time    0.0008
    --------------------------------------------
      LOOP:  cpu time    0.2840: real time    0.2849

 eigenvalue-minimisations  :  1060
 total energy-change (2. order) :-0.6826649E-01  (-0.6825035E-01)
 number of electron      40.9999856 magnetization 
 augmentation part        2.9258967 magnetization 

 Broyden mixing:
  rms(total) = 0.10003E+02    rms(broyden)= 0.10003E+02
  rms(prec ) = 0.11455E+02
  weight for this iteration     100.00

 Free energy of the ion-electron system (eV)
  ---------------------------------------------------
  alpha Z        PSCENC =       203.55814167
  Ewald energy   TEWEN  =     -3104.54515132
  -Hartree energ DENC   =     -1030.79084955
  -exchange      EXHF   =         0.00000000
  -V(xc)+E(xc)   XCENC  =       193.04027408
  PAW double counting   =      3268.09820801    -3251.64734538
  entropy T*S    EENTRO =        -0.06562345
  eigenvalues    EBANDS =      -424.19065444
  atomic energy  EATOM  =      4085.18637255
  Solvation  Ediel_sol  =         0.00000000
  ---------------------------------------------------
  free energy    TOTEN  =       -61.35662785 eV

  energy without entropy =      -61.29100440  energy(sigma->0) =      -61.32381612


--------------------------------------------------------------------------------------------------------




--------------------------------------- Iteration      1(   6)  ---------------------------------------


    POTLOK:  cpu time    0.0200: real time    0.0185
    SETDIJ:  cpu time    0.0040: real time    0.0061
     EDDAV:  cpu time    0.2600: real time    0.2578
       DOS:  cpu time    0.0000: real time    0.0005
    CHARGE:  cpu time    0.0160: real time    0.0175
    MIXING:  cpu time    0.0000: real time    0.0010
    --------------------------------------------
      LOOP:  cpu time    0.3000: real time    0.3013

 eigenvalue-minimisations  :  1076
 total energy-change (2. order) : 0.1321509E+02  (-0.4969050E+01)
 number of electron      40.9999829 magnetization 
 augmentation part        3.4495042 magnetization 

 Broyden mixing:
  rms(total) = 0.11838E+02    rms(broyden)= 0.11838E+02
  rms(prec ) = 0.12302E+02
  weight for this iteration     100.00

 eigenvalues of (default mixing * dielectric matrix)
  average eigenvalue GAMMA=   0.4301
  0.4301

 Free energy of the ion-electron system (eV)
  ---------------------------------------------------
  alpha Z        PSCENC =       203.55814167
  Ewald energy   TEWEN  =     -3104.54515132
  -Hartree energ DENC   =     -1002.63017109
  -exchange      EXHF   =         0.00000000
  -V(xc)+E(xc)   XCENC  =       193.91869717
  PAW double counting   =      3897.30574309    -3885.86626364
  entropy T*S    EENTRO =        -0.10422254
  eigenvalues    EBANDS =      -434.96468536
  atomic energy  EATOM  =      4085.18637255
  Solvation  Ediel_sol  =         0.00000000
  ---------------------------------------------------
  free energy    TOTEN  =       -48.14153947 eV

  energy without entropy =      -48.03731693  energy(sigma->0) =      -48.08942820


--------------------------------------------------------------------------------------------------------




--------------------------------------- Iteration      1(   7)  ---------------------------------------


    POTLOK:  cpu time    0.0200: real time    0.0192
    SETDIJ:  cpu time    0.0080: real time    0.0060
     EDDAV:  cpu time    0.2560: real time    0.2576
       DOS:  cpu time    0.0000: real time    0.0005
    CHARGE:  cpu time    0.0160: real time    0.0173
    MIXING:  cpu time    0.0040: real time    0.0010
    --------------------------------------------
      LOOP:  cpu time    0.3040: real time    0.3015

 eigenvalue-minimisations  :  1040
 total energy-change (2. order) : 0.1952064E+01  (-0.1046580E+01)
 number of electron      40.9999848 magnetization 
 augmentation part        2.8862506 magnetization 

 Broyden mixing:
  rms(total) = 0.83705E+01    rms(broyden)= 0.83705E+01
  rms(prec ) = 0.83998E+01
  weight for this iteration     100.00

 eigenvalues of (default mixing * dielectric matrix)
  average eigenvalue GAMMA=   1.0047
  1.0047  1.0047

 Free energy of the ion-electron system (eV)
  ---------------------------------------------------
  alpha Z        PSCENC =       203.55814167
  Ewald energy   TEWEN  =     -3104.54515132
  -Hartree energ DENC   =     -1013.61252941
  -exchange      EXHF   =         0.00000000
  -V(xc)+E(xc)   XCENC  =       193.86171215
  PAW double counting   =      4217.65581937    -4205.97608789
  entropy T*S    EENTRO =        -0.07945049
  eigenvalues    EBANDS =      -422.23830193
  atomic energy  EATOM  =      4085.18637255
  Solvation  Ediel_sol  =         0.00000000
  ---------------------------------------------------
  free energy    TOTEN  =       -46.18947531 eV

  energy without entropy =      -46.11002481  energy(sigma->0) =      -46.14975006


--------------------------------------------------------------------------------------------------------




--------------------------------------- Iteration      1(   8)  ---------------------------------------


    POTLOK:  cpu time    0.0160: real time    0.0190
    SETDIJ:  cpu time    0.0080: real time    0.0061
     EDDAV:  cpu time    0.2480: real time    0.2487
       DOS:  cpu time    0.0000: real time    0.0005
    CHARGE:  cpu time    0.0160: real time    0.0174
    MIXING:  cpu time    0.0040: real time    0.0010
    --------------------------------------------
      LOOP:  cpu time    0.2920: real time    0.2927

 eigenvalue-minimisations  :   996
 total energy-change (2. order) :-0.5678064E+01  (-0.2078294E+01)
 number of electron      40.9999800 magnetization 
 augmentation part        4.1319292 magnetization 

 Broyden mixing:
  rms(total) = 0.65842E+01    rms(broyden)= 0.65841E+01
  rms(prec ) = 0.95970E+01
  weight for this iteration     100.00

 eigenvalues of (default mixing * dielectric matrix)
  average eigenvalue GAMMA=   1.0874
  1.4627  1.4627  0.3370

 Free energy of the ion-electron system (eV)
  ---------------------------------------------------
  alpha Z        PSCENC =       203.55814167
  Ewald energy   TEWEN  =     -3104.54515132
  -Hartree energ DENC   =      -976.83374317
  -exchange      EXHF   =         0.00000000
  -V(xc)+E(xc)   XCENC  =       192.52929004
  PAW double counting   =      4531.79165256    -4521.76525447
  entropy T*S    EENTRO =        -0.10711690
  eigenvalues    EBANDS =      -461.68173023
  atomic energy  EATOM  =      4085.18637255
  Solvation  Ediel_sol  =         0.00000000
  ---------------------------------------------------
  free energy    TOTEN  =       -51.86753928 eV

  energy without entropy =      -51.76042237  energy(sigma->0) =      -51.81398083


--------------------------------------------------------------------------------------------------------




--------------------------------------- Iteration      1(   9)  ---------------------------------------


    POTLOK:  cpu time    0.0160: real time    0.0186
    SETDIJ:  cpu time    0.0080: real time    0.0061
     EDDAV:  cpu time    0.2240: real time    0.2255
       DOS:  cpu time    0.0000: real time    0.0005
    CHARGE:  cpu time    0.0160: real time    0.0170
    MIXING:  cpu time    0.0040: real time    0.0010
    --------------------------------------------
      LOOP:  cpu time    0.2680: real time    0.2687

 eigenvalue-minimisations  :   888
 total energy-change (2. order) : 0.5618774E+01  (-0.4264667E+01)
 number of electron      40.9999852 magnetization 
 augmentation part        2.8208787 magnetization 

 Broyden mixing:
  rms(total) = 0.24214E+01    rms(broyden)= 0.24211E+01
  rms(prec ) = 0.26362E+01
  weight for this iteration     100.00

 eigenvalues of (default mixing * dielectric matrix)
  average eigenvalue GAMMA=   1.1377
  2.7743  0.7141  0.7141  0.3485

 Free energy of the ion-electron system (eV)
  ---------------------------------------------------
  alpha Z        PSCENC =       203.55814167
  Ewald energy   TEWEN  =     -3104.54515132
  -Hartree energ DENC   =     -1010.86356305
  -exchange      EXHF   =         0.00000000
  -V(xc)+E(xc)   XCENC  =       193.24949428
  PAW double counting   =      5471.11003646    -5459.48057835
  entropy T*S    EENTRO =        -0.07840091
  eigenvalues    EBANDS =      -424.38511638
  atomic energy  EATOM  =      4085.18637255
  Solvation  Ediel_sol  =         0.00000000
  ---------------------------------------------------
  free energy    TOTEN  =       -46.24876506 eV

  energy without entropy =      -46.17036416  energy(sigma->0) =      -46.20956461


--------------------------------------------------------------------------------------------------------




--------------------------------------- Iteration      1(  10)  ---------------------------------------


    POTLOK:  cpu time    0.0160: real time    0.0185
    SETDIJ:  cpu time    0.0080: real time    0.0060
     EDDAV:  cpu time    0.2520: real time    0.2546
       DOS:  cpu time    0.0000: real time    0.0005
    CHARGE:  cpu time    0.0200: real time    0.0170
    MIXING:  cpu time    0.0000: real time    0.0010
    --------------------------------------------
      LOOP:  cpu time    0.2960: real time    0.2978

 eigenvalue-minimisations  :  1064
 total energy-change (2. order) : 0.2655181E+00  (-0.1189726E+00)
 number of electron      40.9999847 magnetization 
 augmentation part        2.9055471 magnetization 

 Broyden mixing:
  rms(total) = 0.13761E+01    rms(broyden)= 0.13761E+01
  rms(prec ) = 0.14081E+01
  weight for this iteration     100.00

 eigenvalues of (default mixing * dielectric matrix)
  average eigenvalue GAMMA=   1.0056
  2.0942  1.1707  0.7058  0.7058  0.3518

 Free energy of the ion-electron system (eV)
  ---------------------------------------------------
  alpha Z        PSCENC =       203.55814167
  Ewald energy   TEWEN  =     -3104.54515132
  -Hartree energ DENC   =     -1003.99876817
  -exchange      EXHF   =         0.00000000
  -V(xc)+E(xc)   XCENC  =       193.07894641
  PAW double counting   =      5539.86569998    -5528.60463897
  entropy T*S    EENTRO =        -0.07950931
  eigenvalues    EBANDS =      -430.44433976
  atomic energy  EATOM  =      4085.18637255
  Solvation  Ediel_sol  =         0.00000000
  ---------------------------------------------------
  free energy    TOTEN  =       -45.98324693 eV

  energy without entropy =      -45.90373761  energy(sigma->0) =      -45.94349227


--------------------------------------------------------------------------------------------------------




--------------------------------------- Iteration      1(  11)  ---------------------------------------


    POTLOK:  cpu time    0.0160: real time    0.0184
    SETDIJ:  cpu time    0.0080: real time    0.0063
     EDDAV:  cpu time    0.2360: real time    0.2380
       DOS:  cpu time    0.0040: real time    0.0005
    CHARGE:  cpu time    0.0160: real time    0.0173
    MIXING:  cpu time    0.0000: real time    0.0011
    --------------------------------------------
      LOOP:  cpu time    0.2800: real time    0.2815

 eigenvalue-minimisations  :   980
 total energy-change (2. order) :-0.4314045E-02  (-0.3864957E-02)
 number of electron      40.9999848 magnetization 
 augmentation part        2.8870990 magnetization 

 Broyden mixing:
  rms(total) = 0.11264E+01    rms(broyden)= 0.11264E+01
  rms(prec ) = 0.11690E+01
  weight for this iteration     100.00

 eigenvalues of (default mixing * dielectric matrix)
  average eigenvalue GAMMA=   0.8828
  2.1731  1.0652  0.6725  0.6725  0.3519  0.3619

 Free energy of the ion-electron system (eV)
  ---------------------------------------------------
  alpha Z        PSCENC =       203.55814167
  Ewald energy   TEWEN  =     -3104.54515132
  -Hartree energ DENC   =     -1005.75392702
  -exchange      EXHF   =         0.00000000
  -V(xc)+E(xc)   XCENC  =       193.18024104
  PAW double counting   =      5310.34822098    -5298.99092122
  entropy T*S    EENTRO =        -0.07940345
  eigenvalues    EBANDS =      -428.89113420
  atomic energy  EATOM  =      4085.18637255
  Solvation  Ediel_sol  =         0.00000000
  ---------------------------------------------------
  free energy    TOTEN  =       -45.98756097 eV

  energy without entropy =      -45.90815753  energy(sigma->0) =      -45.94785925


--------------------------------------------------------------------------------------------------------




--------------------------------------- Iteration      1(  12)  ---------------------------------------


    POTLOK:  cpu time    0.0200: real time    0.0185
    SETDIJ:  cpu time    0.0040: real time    0.0062
     EDDAV:  cpu time    0.2680: real time    0.2662
       DOS:  cpu time    0.0000: real time    0.0005
    CHARGE:  cpu time    0.0160: real time    0.0171
    MIXING:  cpu time    0.0000: real time    0.0011
    --------------------------------------------
      LOOP:  cpu time    0.3080: real time    0.3097

 eigenvalue-minimisations  :  1116
 total energy-change (2. order) :-0.1010341E-01  (-0.2436643E-03)
 number of electron      40.9999848 magnetization 
 augmentation part        2.8821378 magnetization 

 Broyden mixing:
  rms(total) = 0.13156E+01    rms(broyden)= 0.13156E+01
  rms(prec ) = 0.13645E+01
  weight for this iteration     100.00

 eigenvalues of (default mixing * dielectric matrix)
  average eigenvalue GAMMA=   1.3057
  3.4563  2.2787  0.8882  0.8882  0.8473  0.3538  0.4278

 Free energy of the ion-electron system (eV)
  ---------------------------------------------------
  alpha Z        PSCENC =       203.55814167
  Ewald energy   TEWEN  =     -3104.54515132
  -Hartree energ DENC   =     -1005.89820965
  -exchange      EXHF   =         0.00000000
  -V(xc)+E(xc)   XCENC  =       193.17695072
  PAW double counting   =      5355.59097752    -5344.25916144
  entropy T*S    EENTRO =        -0.07932699
  eigenvalues    EBANDS =      -428.72825744
  atomic energy  EATOM  =      4085.18637255
  Solvation  Ediel_sol  =         0.00000000
  ---------------------------------------------------
  free energy    TOTEN  =       -45.99766438 eV

  energy without entropy =      -45.91833739  energy(sigma->0) =      -45.95800089


--------------------------------------------------------------------------------------------------------




--------------------------------------- Iteration      1(  13)  ---------------------------------------


    POTLOK:  cpu time    0.0200: real time    0.0184
    SETDIJ:  cpu time    0.0040: real time    0.0061
