FeSe                                    
   1.00000000000000     
     3.688905    0.000000    0.000000
     0.000000    3.688905    0.000000
     0.000000    0.000000    5.854194
   Fe   Se
     2     2
Direct
  0.000000  0.000000  0.000000
  0.500000  0.500000  0.000000
  0.000000  0.500000  0.764815
  0.500000  0.000000  0.235185
 
   32   32   48
  684.61      648.73      553.15      426.29      297.52      187.17      105.96      57.112      35.634      28.392    
  24.162      21.634      20.318      19.721      19.392      19.109      18.975      19.109      19.392      19.721    
  20.318      21.634      24.162      28.392      35.634      57.112      105.96      187.17      297.52      426.29    
  553.15      648.73      648.73      614.56      523.54      402.82      280.54      176.17      99.908      54.545    
  34.901      28.131      24.054      21.633      20.378      19.812      19.501      19.234      19.109      19.234    
  19.501      19.812      20.378      21.633      24.054      28.131      34.901      54.545      99.908      176.17    
  280.54      402.82      523.54      614.56      553.15      523.54      444.73      340.52      235.67      147.37    
  84.303      48.106      33.105      27.418      23.760      21.617      20.513      20.012      19.735      19.501    
  19.392      19.501      19.735      20.012      20.513      21.617      23.760      27.418      33.105      48.106    
  84.303      147.37      235.67      340.52      444.73      523.54      426.29      402.82      340.52      258.66    
  177.42      110.76      65.170      40.661      31.048      26.429      23.366      21.600      20.688      20.259    
  20.012      19.812      19.721      19.812      20.012      20.259      20.688      21.600      23.366      26.429    
  31.048      40.661      65.170      110.76      177.42      258.66      340.52      402.82      297.52      280.54    
  235.67      177.42      121.01      76.710      48.491      34.737      29.098      25.385      23.013      21.680    
  21.003      20.688      20.513      20.378      20.318      20.378      20.513      20.688      21.003      21.680    
  23.013      25.385      29.098      34.737      48.491      76.710      121.01      177.42      235.67      280.54    
  187.17      176.17      147.37      110.76      76.710      51.760      37.469      31.034      27.231      24.499    
  22.864      22.027      21.680      21.600      21.617      21.633      21.634      21.633      21.617      21.600    
  21.680      22.027      22.864      24.499      27.231      31.034      37.469      51.760      76.710      110.76    
  147.37      176.17      105.96      99.908      84.303      65.170      48.491      37.469      31.760      28.339    
  25.672      23.957      23.103      22.864      23.013      23.366      23.760      24.054      24.162      24.054    
  23.760      23.366      23.013      22.864      23.103      23.957      25.672      28.339      31.760      37.469    
  48.491      65.170      84.303      99.908      57.112      54.545      48.106      40.661      34.737      31.034    
  28.339      26.123      24.634      23.944      23.957      24.499      25.385      26.429      27.418      28.131    
  28.392      28.131      27.418      26.429      25.385      24.499      23.957      23.944      24.634      26.123    
  28.339      31.034      34.737      40.661      48.106      54.545      35.634      34.901      33.105      31.048    
  29.098      27.231      25.672      24.634      24.269      24.634      25.672      27.231      29.098      31.048    
  33.105      34.901      35.634      34.901      33.105      31.048      29.098      27.231      25.672      24.634    
  24.269      24.634      25.672      27.231      29.098      31.048      33.105      34.901      28.392      28.131    
  27.418      26.429      25.385      24.499      23.957      23.944      24.634      26.123      28.339      31.034    
  34.737      40.661      48.106      54.545      57.112      54.545      48.106      40.661      34.737      31.034    
  28.339      26.123      24.634      23.944      23.957      24.499      25.385      26.429      27.418      28.131    
  24.162      24.054      23.760      23.366      23.013      22.864      23.103      23.957      25.672      28.339    
  31.760      37.469      48.491      65.170      84.303      99.908      105.96      99.908      84.303      65.170    
  48.491      37.469      31.760      28.339      25.672      23.957      23.103      22.864      23.013      23.366    
  23.760      24.054      21.634      21.633      21.617      21.600      21.680      22.027      22.864      24.499    
  27.231      31.034      37.469      51.760      76.710      110.76      147.37      176.17      187.17      176.17    
  147.37      110.76      76.710      51.760      37.469      31.034      27.231      24.499      22.864      22.027    
  21.680      21.600      21.617      21.633      20.318      20.378      20.513      20.688      21.003      21.680    
  23.013      25.385      29.098      34.737      48.491      76.710      121.01      177.42      235.67      280.54    
  297.52      280.54      235.67      177.42      121.01      76.710      48.491      34.737      29.098      25.385    
  23.013      21.680      21.003      20.688      20.513      20.378      19.721      19.812      20.012      20.259    
  20.688      21.600      23.366      26.429      31.048      40.661      65.170      110.76      177.42      258.66    
  340.52      402.82      426.29      402.82      340.52      258.66      177.42      110.76      65.170      40.661    
  31.048      26.429      23.366      21.600      20.688      20.259      20.012      19.812      19.392      19.501    
  19.735      20.012      20.513      21.617      23.760      27.418      33.105      48.106      84.303      147.37    
  235.67      340.52      444.73      523.54      553.15      523.54      444.73      340.52      235.67      147.37    
  84.303      48.106      33.105      27.418      23.760      21.617      20.513      20.012      19.735      19.501    
  19.109      19.234      19.501      19.812      20.378      21.633      24.054      28.131      34.901      54.545    
  99.908      176.17      280.54      402.82      523.54      614.56      648.73      614.56      523.54      402.82    
  280.54      176.17      99.908      54.545      34.901      28.131      24.054      21.633      20.378      19.812    
  19.501      19.234      18.975      19.109      19.392      19.721      20.318      21.634      24.162      28.392    
  35.634      57.112      105.96      187.17      297.52      426.29      553.15      648.73      684.61      648.73    
  553.15      426.29      297.52      187.17      105.96      57.112      35.634      28.392      24.162      21.634    
  20.318      19.721      19.392      19.109      19.109      19.234      19.501      19.812      20.378      21.633    
  24.054      28.131      34.901      54.545      99.908      176.17      280.54      402.82      523.54      614.56    
  648.73      614.56      523.54      402.82      280.54      176.17      99.908      54.545      34.901      28.131    
  24.054      21.633      20.378      19.812      19.501      19.234      19.392      19.501      19.735      20.012    
  20.513      21.617      23.760      27.418      33.105      48.106      84.303      147.37      235.67      340.52    
  444.73      523.54      553.15      523.54      444.73      340.52      235.67      147.37      84.303      48.106    
  33.105      27.418      23.760      21.617      20.513      20.012      19.735      19.501      19.721      19.812    
  20.012      20.259      20.688      21.600      23.366      26.429      31.048      40.661      65.170      110.76    
  177.42      258.66      340.52      402.82      426.29      402.82      340.52      258.66      177.42      110.76    
  65.170      40.661      31.048      26.429      23.366      21.600      20.688      20.259      20.012      19.812    
  20.318      20.378      20.513      20.688      21.003      21.680      23.013      25.385      29.098      34.737    
  48.491      76.710      121.01      177.42      235.67      280.54      297.52      280.54      235.67      177.42    
  121.01      76.710      48.491      34.737      29.098      25.385      23.013      21.680      21.003      20.688    
  20.513      20.378      21.634      21.633      21.617      21.600      21.680      22.027      22.864      24.499    
  27.231      31.034      37.469      51.760      76.710      110.76      147.37      176.17      187.17      176.17    
  147.37      110.76      76.710      51.760      37.469      31.034      27.231      24.499      22.864      22.027    
  21.680      21.600      21.617      21.633      24.162      24.054      23.760      23.366      23.013      22.864    
  23.103      23.957      25.672      28.339      31.760      37.469      48.491      65.170      84.303      99.908    
  105.96      99.908      84.303      65.170      48.491      37.469      31.760      28.339      25.672      23.957    
  23.103      22.864      23.013      23.366      23.760      24.054      28.392      28.131      27.418      26.429    
  25.385      24.499      23.957      23.944      24.634      26.123      28.339      31.034      34.737      40.661    
  48.106      54.545      57.112      54.545      48.106      40.661      34.737      31.034      28.339      26.123    
  24.634      23.944      23.957      24.499      25.385      26.429      27.418      28.131      35.634      34.901    
  33.105      31.048      29.098      27.231      25.672      24.634      24.269      24.634      25.672      27.231    
  29.098      31.048      33.105      34.901      35.634      34.901      33.105      31.048      29.098      27.231    
  25.672      24.634      24.269      24.634      25.672      27.231      29.098      31.048      33.105      34.901    
  57.112      54.545      48.106      40.661      34.737      31.034      28.339      26.123      24.634      23.944    
  23.957      24.499      25.385      26.429      27.418      28.131      28.392      28.131      27.418      26.429    
  25.385      24.499      23.957      23.944      24.634      26.123      28.339      31.034      34.737      40.661    
  48.106      54.545      105.96      99.908      84.303      65.170      48.491      37.469      31.760      28.339    
  25.672      23.957      23.103      22.864      23.013      23.366      23.760      24.054      24.162      24.054    
  23.760      23.366      23.013      22.864      23.103      23.957      25.672      28.339      31.760      37.469    
  48.491      65.170      84.303      99.908      187.17      176.17      147.37      110.76      76.710      51.760    
  37.469      31.034      27.231      24.499      22.864      22.027      21.680      21.600      21.617      21.633    
  21.634      21.633      21.617      21.600      21.680      22.027      22.864      24.499      27.231      31.034    
  37.469      51.760      76.710      110.76      147.37      176.17      297.52      280.54      235.67      177.42    
  121.01      76.710      48.491      34.737      29.098      25.385      23.013      21.680      21.003      20.688    
  20.513      20.378      20.318      20.378      20.513      20.688      21.003      21.680      23.013      25.385    
  29.098      34.737      48.491      76.710      121.01      177.42      235.67      280.54      426.29      402.82    
  340.52      258.66      177.42      110.76      65.170      40.661      31.048      26.429      23.366      21.600    
  20.688      20.259      20.012      19.812      19.721      19.812      20.012      20.259      20.688      21.600    
  23.366      26.429      31.048      40.661      65.170      110.76      177.42      258.66      340.52      402.82    
  553.15      523.54      444.73      340.52      235.67      147.37      84.303      48.106      33.105      27.418    
  23.760      21.617      20.513      20.012      19.735      19.501      19.392      19.501      19.735      20.012    
  20.513      21.617      23.760      27.418      33.105      48.106      84.303      147.37      235.67      340.52    
  444.73      523.54      648.73      614.56      523.54      402.82      280.54      176.17      99.908      54.545    
  34.901      28.131      24.054      21.633      20.378      19.812      19.501      19.234      19.109      19.234    
  19.501      19.812      20.378      21.633      24.054      28.131      34.901      54.545      99.908      176.17    
  280.54      402.82      523.54      614.56      646.66      612.18      520.54      399.59      277.95      175.03    
  100.47      56.484      37.674      31.388      27.729      25.707      24.822      24.571      24.501      24.385    
  24.311      24.385      24.501      24.571      24.822      25.707      27.729      31.388      37.674      56.484    
  100.47      175.03      277.95      399.59      520.54      612.18      612.68      579.85      492.62      377.59    
  262.14      164.85      94.883      54.088      36.926      31.049      27.545      25.632      24.811      24.596    
  24.548      24.451      24.385      24.451      24.548      24.596      24.811      25.632      27.545      31.049    
  36.926      54.088      94.883      164.85      262.14      377.59      492.62      579.85      522.08      493.67    
  418.28      319.14      220.32      138.16      80.460      48.058      35.056      30.118      27.036      25.408    
  24.748      24.610      24.606      24.548      24.501      24.548      24.606      24.610      24.748      25.408    
  27.036      30.118      35.056      48.058      80.460      138.16      220.32      319.14      418.28      493.67    
  401.70      379.27      319.87      242.27      165.98      104.22      62.746      41.025      32.799      28.809    
  26.323      25.077      24.619      24.567      24.610      24.596      24.571      24.596      24.610      24.567    
  24.619      25.077      26.323      28.809      32.799      41.025      62.746      104.22      165.98      242.27    
  319.87      379.27      279.42      263.29      220.78      165.93      113.33      72.621      47.249      35.298    
  30.498      27.385      25.578      24.763      24.545      24.619      24.748      24.811      24.822      24.811    
  24.748      24.619      24.545      24.763      25.578      27.385      30.498      35.298      47.249      72.621    
  113.33      165.93      220.78      263.29      174.73      164.39      137.40      103.33      71.989      49.439    
  36.904      31.474      28.251      26.088      24.993      24.655      24.763      25.077      25.408      25.632    
  25.707      25.632      25.408      25.077      24.763      24.655      24.993      26.088      28.251      31.474    
  36.904      49.439      71.989      103.33      137.40      164.39      98.030      92.443      78.099      60.664    
  45.708      36.098      31.317      28.447      26.314      25.120      24.762      24.993      25.578      26.323    
  27.036      27.545      27.729      27.545      27.036      26.323      25.578      24.993      24.762      25.120    
  26.314      28.447      31.317      36.098      45.708      60.664      78.099      92.443      52.298      50.015    
  44.328      37.859      32.862      29.847      27.637      25.907      24.896      24.665      25.120      26.088    
  27.385      28.809      30.118      31.049      31.388      31.049      30.118      28.809      27.385      26.088    
  25.120      24.665      24.896      25.907      27.637      29.847      32.862      37.859      44.328      50.015    
  32.388      31.798      30.370      28.768      27.242      25.810      24.693      24.088      24.137      24.896    
  26.314      28.251      30.498      32.799      35.056      36.926      37.674      36.926      35.056      32.799    
  30.498      28.251      26.314      24.896      24.137      24.088      24.693      25.810      27.242      28.768    
  30.370      31.798      25.360      25.174      24.672      23.994      23.319      22.826      22.679      23.044    
  24.088      25.907      28.447      31.474      35.298      41.025      48.058      54.088      56.484      54.088    
  48.058      41.025      35.298      31.474      28.447      25.907      24.088      23.044      22.679      22.826    
  23.319      23.994      24.672      25.174      21.021      20.977      20.862      20.737      20.708      20.907    
  21.494      22.679      24.693      27.637      31.317      36.904      47.249      62.746      80.460      94.883    
  100.47      94.883      80.460      62.746      47.249      36.904      31.317      27.637      24.693      22.679    
  21.494      20.907      20.708      20.737      20.862      20.977      18.345      18.395      18.530      18.743    
  19.107      19.762      20.907      22.826      25.810      29.847      36.098      49.439      72.621      104.22    
  138.16      164.85      175.03      164.85      138.16      104.22      72.621      49.439      36.098      29.847    
  25.810      22.826      20.907      19.762      19.107      18.743      18.530      18.395      16.847      16.950    
  17.213      17.589      18.156      19.107      20.708      23.319      27.242      32.862      45.708      71.989    
  113.33      165.98      220.32      262.14      277.95      262.14      220.32      165.98      113.33      71.989    
  45.708      32.862      27.242      23.319      20.708      19.107      18.156      17.589      17.213      16.950    
  16.067      16.195      16.507      16.933      17.589      18.743      20.737      23.994      28.768      37.859    
  60.664      103.33      165.93      242.27      319.14      377.59      399.59      377.59      319.14      242.27    
  165.93      103.33      60.664      37.859      28.768      23.994      20.737      18.743      17.589      16.933    
  16.507      16.195      15.591      15.733      16.067      16.507      17.213      18.530      20.862      24.672    
  30.370      44.328      78.099      137.40      220.78      319.87      418.28      492.62      520.54      492.62    
  418.28      319.87      220.78      137.40      78.099      44.328      30.370      24.672      20.862      18.530    
  17.213      16.507      16.067      15.733      15.220      15.375      15.733      16.195      16.950      18.395    
  20.977      25.174      31.798      50.015      92.443      164.39      263.29      379.27      493.67      579.85    
  612.18      579.85      493.67      379.27      263.29      164.39      92.443      50.015      31.798      25.174    
  20.977      18.395      16.950      16.195      15.733      15.375      15.059      15.220      15.591      16.067    
  16.847      18.345      21.021      25.360      32.388      52.298      98.030      174.73      279.42      401.70    
  522.08      612.68      646.66      612.68      522.08      401.70      279.42      174.73      98.030      52.298    
  32.388      25.360      21.021      18.345      16.847      16.067      15.591      15.220      15.220      15.375    
  15.733      16.195      16.950      18.395      20.977      25.174      31.798      50.015      92.443      164.39    
  263.29      379.27      493.67      579.85      612.18      579.85      493.67      379.27      263.29      164.39    
  92.443      50.015      31.798      25.174      20.977      18.395      16.950      16.195      15.733      15.375    
  15.591      15.733      16.067      16.507      17.213      18.530      20.862      24.672      30.370      44.328    
  78.099      137.40      220.78      319.87      418.28      492.62      520.54      492.62      418.28      319.87    
  220.78      137.40      78.099      44.328      30.370      24.672      20.862      18.530      17.213      16.507    
  16.067      15.733      16.067      16.195      16.507      16.933      17.589      18.743      20.737      23.994    
  28.768      37.859      60.664      103.33      165.93      242.27      319.14      377.59      399.59      377.59    
  319.14      242.27      165.93      103.33      60.664      37.859      28.768      23.994      20.737      18.743    
  17.589      16.933      16.507      16.195      16.847      16.950      17.213      17.589      18.156      19.107    
  20.708      23.319      27.242      32.862      45.708      71.989      113.33      165.98      220.32      262.14    
  277.95      262.14      220.32      165.98      113.33      71.989      45.708      32.862      27.242      23.319    
  20.708      19.107      18.156      17.589      17.213      16.950      18.345      18.395      18.530      18.743    
  19.107      19.762      20.907      22.826      25.810      29.847      36.098      49.439      72.621      104.22    
  138.16      164.85      175.03      164.85      138.16      104.22      72.621      49.439      36.098      29.847    
  25.810      22.826      20.907      19.762      19.107      18.743      18.530      18.395      21.021      20.977    
  20.862      20.737      20.708      20.907      21.494      22.679      24.693      27.637      31.317      36.904    
  47.249      62.746      80.460      94.883      100.47      94.883      80.460      62.746      47.249      36.904    
  31.317      27.637      24.693      22.679      21.494      20.907      20.708      20.737      20.862      20.977    
  25.360      25.174      24.672      23.994      23.319      22.826      22.679      23.044      24.088      25.907    
  28.447      31.474      35.298      41.025      48.058      54.088      56.484      54.088      48.058      41.025    
  35.298      31.474      28.447      25.907      24.088      23.044      22.679      22.826      23.319      23.994    
  24.672      25.174      32.388      31.798      30.370      28.768      27.242      25.810      24.693      24.088    
  24.137      24.896      26.314      28.251      30.498      32.799      35.056      36.926      37.674      36.926    
  35.056      32.799      30.498      28.251      26.314      24.896      24.137      24.088      24.693      25.810    
  27.242      28.768      30.370      31.798      52.298      50.015      44.328      37.859      32.862      29.847    
  27.637      25.907      24.896      24.665      25.120      26.088      27.385      28.809      30.118      31.049    
  31.388      31.049      30.118      28.809      27.385      26.088      25.120      24.665      24.896      25.907    
  27.637      29.847      32.862      37.859      44.328      50.015      98.030      92.443      78.099      60.664    
  45.708      36.098      31.317      28.447      26.314      25.120      24.762      24.993      25.578      26.323    
  27.036      27.545      27.729      27.545      27.036      26.323      25.578      24.993      24.762      25.120    
  26.314      28.447      31.317      36.098      45.708      60.664      78.099      92.443      174.73      164.39    
  137.40      103.33      71.989      49.439      36.904      31.474      28.251      26.088      24.993      24.655    
  24.763      25.077      25.408      25.632      25.707      25.632      25.408      25.077      24.763      24.655    
  24.993      26.088      28.251      31.474      36.904      49.439      71.989      103.33      137.40      164.39    
  279.42      263.29      220.78      165.93      113.33      72.621      47.249      35.298      30.498      27.385    
  25.578      24.763      24.545      24.619      24.748      24.811      24.822      24.811      24.748      24.619    
  24.545      24.763      25.578      27.385      30.498      35.298      47.249      72.621      113.33      165.93    
  220.78      263.29      401.70      379.27      319.87      242.27      165.98      104.22      62.746      41.025    
  32.799      28.809      26.323      25.077      24.619      24.567      24.610      24.596      24.571      24.596    
  24.610      24.567      24.619      25.077      26.323      28.809      32.799      41.025      62.746      104.22    
  165.98      242.27      319.87      379.27      522.08      493.67      418.28      319.14      220.32      138.16    
  80.460      48.058      35.056      30.118      27.036      25.408      24.748      24.610      24.606      24.548    
  24.501      24.548      24.606      24.610      24.748      25.408      27.036      30.118      35.056      48.058    
  80.460      138.16      220.32      319.14      418.28      493.67      612.68      579.85      492.62      377.59    
  262.14      164.85      94.883      54.088      36.926      31.049      27.545      25.632      24.811      24.596    
  24.548      24.451      24.385      24.451      24.548      24.596      24.811      25.632      27.545      31.049    
  36.926      54.088      94.883      164.85      262.14      377.59      492.62      579.85      546.45      516.29    
  436.48      332.21      229.20      144.40      85.260      52.174      39.068      34.531      31.941      30.839    
  30.708      31.047      31.413      31.581      31.610      31.581      31.413      31.047      30.708      30.839    
  31.941      34.531      39.068      52.174      85.260      144.40      229.20      332.21      436.48      516.29    
  517.01      488.36      412.57      313.63      216.10      136.15      80.819      50.272      38.381      34.110    
  31.664      30.663      30.593      30.966      31.356      31.544      31.581      31.544      31.356      30.966    
  30.593      30.663      31.664      34.110      38.381      50.272      80.819      136.15      216.10      313.63    
  412.57      488.36      438.62      414.01      348.98      264.35      181.52      114.56      69.383      45.469    
  36.594      32.948      30.894      30.154      30.233      30.683      31.123      31.356      31.413      31.356    
  31.123      30.683      30.233      30.154      30.894      32.948      36.594      45.469      69.383      114.56    
  181.52      264.35      348.98      414.01      334.88      315.69      265.14      199.81      136.78      87.227    
  55.384      39.803      34.231      31.298      29.788      29.393      29.656      30.191      30.683      30.966    
  31.047      30.966      30.683      30.191      29.656      29.393      29.788      31.298      34.231      39.803    
  55.384      87.227      136.78      199.81      265.14      315.69      230.39      216.87      181.45      136.26    
  93.793      61.990      43.185      34.997      31.594      29.466      28.560      28.538      29.007      29.656    
  30.233      30.593      30.708      30.593      30.233      29.656      29.007      28.538      28.560      29.466    
  31.594      34.997      43.185      61.990      93.793      136.26      181.45      216.87      142.35      133.94    
  112.12      84.949      60.562      43.728      34.985      31.324      29.001      27.719      27.422      27.798    
  28.538      29.393      30.154      30.663      30.839      30.663      30.154      29.393      28.538      27.798    
  27.422      27.719      29.001      31.324      34.985      43.728      60.562      84.949      112.12      133.94    
  79.482      75.136      64.070      50.874      39.943      33.318      30.154      28.066      26.722      26.269    
  26.582      27.422      28.560      29.788      30.894      31.664      31.941      31.664      30.894      29.788    
  28.560      27.422      26.582      26.269      26.722      28.066      30.154      33.318      39.943      50.874    
  64.070      75.136      43.400      41.757      37.722      33.272      29.996      27.987      26.405      25.329    
  24.946      25.292      26.269      27.719      29.466      31.298      32.948      34.110      34.531      34.110    
  32.948      31.298      29.466      27.719      26.269      25.292      24.946      25.329      26.405      27.987    
  29.996      33.272      37.722      41.757      28.306      27.936      27.045      26.004      24.932      23.998    
  23.396      23.288      23.790      24.946      26.722      29.001      31.594      34.231      36.594      38.381    
  39.068      38.381      36.594      34.231      31.594      29.001      26.722      24.946      23.790      23.288    
  23.396      23.998      24.932      26.004      27.045      27.936      22.243      22.129      21.828      21.451    
  21.140      21.033      21.261      21.965      23.288      25.329      28.066      31.324      34.997      39.803    
  45.469      50.272      52.174      50.272      45.469      39.803      34.997      31.324      28.066      25.329    
  23.288      21.965      21.261      21.033      21.140      21.451      21.828      22.129      18.183      18.191    
  18.224      18.324      18.564      19.040      19.879      21.261      23.396      26.405      30.154      34.985    
  43.185      55.384      69.383      80.819      85.260      80.819      69.383      55.384      43.185      34.985    
  30.154      26.405      23.396      21.261      19.879      19.040      18.564      18.324      18.224      18.191    
  15.635      15.721      15.959      16.337      16.897      17.744      19.040      21.033      23.998      27.987    
  33.318      43.728      61.990      87.227      114.56      136.15      144.40      136.15      114.56      87.227    
  61.990      43.728      33.318      27.987      23.998      21.033      19.040      17.744      16.897      16.337    
  15.959      15.721      14.136      14.262      14.601      15.102      15.818      16.897      18.564      21.140    
  24.932      29.996      39.943      60.562      93.793      136.78      181.52      216.10      229.20      216.10    