FeSe                                    
   1.00000000000000     
     3.688905    0.000000    0.000000
     0.000000    3.688905    0.000000
     0.000000    0.000000    5.854194
   Fe   Se
     2     2
Direct
  0.000000  0.000000  0.000000
  0.500000  0.500000  0.000000
  0.000000  0.500000  0.764815
  0.500000  0.000000  0.235185
 
   32   32   48
 0.68460828227E+03 0.64873410675E+03 0.55314644900E+03 0.42628589643E+03 0.29752009457E+03
 0.18716861875E+03 0.10596172260E+03 0.57111724123E+02 0.35633501081E+02 0.28391567381E+02
 0.24161734980E+02 0.21634310378E+02 0.20318167796E+02 0.19721252101E+02 0.19391586480E+02
 0.19108500488E+02 0.18975428760E+02 0.19108500488E+02 0.19391586480E+02 0.19721252101E+02
 0.20318167796E+02 0.21634310378E+02 0.24161734980E+02 0.28391567381E+02 0.35633501081E+02
 0.57111724123E+02 0.10596172260E+03 0.18716861875E+03 0.29752009457E+03 0.42628589643E+03
 0.55314644900E+03 0.64873410675E+03 0.64873410675E+03 0.61456315007E+03 0.52353543314E+03
 0.40282186454E+03 0.28053879282E+03 0.17616971092E+03 0.99908472500E+02 0.54545434046E+02
 0.34900876224E+02 0.28131301911E+02 0.24054223394E+02 0.21632610339E+02 0.20377786821E+02
 0.19811697302E+02 0.19500761572E+02 0.19233979563E+02 0.19108500488E+02 0.19233979563E+02
 0.19500761572E+02 0.19811697302E+02 0.20377786821E+02 0.21632610339E+02 0.24054223394E+02
 0.28131301911E+02 0.34900876224E+02 0.54545434046E+02 0.99908472500E+02 0.17616971092E+03
 0.28053879282E+03 0.40282186454E+03 0.52353543314E+03 0.61456315007E+03 0.55314644900E+03
 0.52353543314E+03 0.44472895851E+03 0.34051977564E+03 0.23566717626E+03 0.14736530164E+03
 0.84303243244E+02 0.48106324276E+02 0.33105355030E+02 0.27418170164E+02 0.23759656905E+02
 0.21616658099E+02 0.20512857511E+02 0.20012262033E+02 0.19735236078E+02 0.19500761572E+02
 0.19391586480E+02 0.19500761572E+02 0.19735236078E+02 0.20012262033E+02 0.20512857511E+02
 0.21616658099E+02 0.23759656905E+02 0.27418170164E+02 0.33105355030E+02 0.48106324276E+02
 0.84303243244E+02 0.14736530164E+03 0.23566717626E+03 0.34051977564E+03 0.44472895851E+03
 0.52353543314E+03 0.42628589643E+03 0.40282186454E+03 0.34051977564E+03 0.25865652597E+03
 0.17741869089E+03 0.11075906429E+03 0.65169511155E+02 0.40661148422E+02 0.31047686958E+02
 0.26428642342E+02 0.23365854225E+02 0.21599953895E+02 0.20687506716E+02 0.20258503861E+02
 0.20012262033E+02 0.19811697302E+02 0.19721252101E+02 0.19811697302E+02 0.20012262033E+02
 0.20258503861E+02 0.20687506716E+02 0.21599953895E+02 0.23365854225E+02 0.26428642342E+02
 0.31047686958E+02 0.40661148422E+02 0.65169511155E+02 0.11075906429E+03 0.17741869089E+03
 0.25865652597E+03 0.34051977564E+03 0.40282186454E+03 0.29752009457E+03 0.28053879282E+03
 0.23566717626E+03 0.17741869089E+03 0.12101152702E+03 0.76710190763E+02 0.48490929276E+02
 0.34737475083E+02 0.29097809068E+02 0.25385075017E+02 0.23012753598E+02 0.21680023049E+02
 0.21002712431E+02 0.20687506716E+02 0.20512857511E+02 0.20377786821E+02 0.20318167796E+02
 0.20377786821E+02 0.20512857511E+02 0.20687506716E+02 0.21002712431E+02 0.21680023049E+02
 0.23012753598E+02 0.25385075017E+02 0.29097809068E+02 0.34737475083E+02 0.48490929276E+02
 0.76710190763E+02 0.12101152702E+03 0.17741869089E+03 0.23566717626E+03 0.28053879282E+03
 0.18716861875E+03 0.17616971092E+03 0.14736530164E+03 0.11075906429E+03 0.76710190763E+02
 0.51759937514E+02 0.37468763718E+02 0.31033964520E+02 0.27230916491E+02 0.24498890001E+02
 0.22864390254E+02 0.22026674826E+02 0.21680023049E+02 0.21599953895E+02 0.21616658099E+02
 0.21632610339E+02 0.21634310378E+02 0.21632610339E+02 0.21616658099E+02 0.21599953895E+02
 0.21680023049E+02 0.22026674826E+02 0.22864390254E+02 0.24498890001E+02 0.27230916491E+02
 0.31033964520E+02 0.37468763718E+02 0.51759937514E+02 0.76710190763E+02 0.11075906429E+03
 0.14736530164E+03 0.17616971092E+03 0.10596172260E+03 0.99908472500E+02 0.84303243244E+02
 0.65169511155E+02 0.48490929276E+02 0.37468763718E+02 0.31759888781E+02 0.28339353947E+02
 0.25671891656E+02 0.23957455208E+02 0.23103111913E+02 0.22864390254E+02 0.23012753598E+02
 0.23365854225E+02 0.23759656905E+02 0.24054223394E+02 0.24161734980E+02 0.24054223394E+02
 0.23759656905E+02 0.23365854225E+02 0.23012753598E+02 0.22864390254E+02 0.23103111913E+02
 0.23957455208E+02 0.25671891656E+02 0.28339353947E+02 0.31759888781E+02 0.37468763718E+02
 0.48490929276E+02 0.65169511155E+02 0.84303243244E+02 0.99908472500E+02 0.57111724123E+02
 0.54545434046E+02 0.48106324276E+02 0.40661148422E+02 0.34737475083E+02 0.31033964520E+02
 0.28339353947E+02 0.26123116528E+02 0.24634114341E+02 0.23944319261E+02 0.23957455208E+02
 0.24498890001E+02 0.25385075017E+02 0.26428642342E+02 0.27418170164E+02 0.28131301911E+02
 0.28391567381E+02 0.28131301911E+02 0.27418170164E+02 0.26428642342E+02 0.25385075017E+02
 0.24498890001E+02 0.23957455208E+02 0.23944319261E+02 0.24634114341E+02 0.26123116528E+02
 0.28339353947E+02 0.31033964520E+02 0.34737475083E+02 0.40661148422E+02 0.48106324276E+02
 0.54545434046E+02 0.35633501081E+02 0.34900876224E+02 0.33105355030E+02 0.31047686958E+02
 0.29097809068E+02 0.27230916491E+02 0.25671891656E+02 0.24634114341E+02 0.24269405421E+02
 0.24634114341E+02 0.25671891656E+02 0.27230916491E+02 0.29097809068E+02 0.31047686958E+02
 0.33105355030E+02 0.34900876224E+02 0.35633501081E+02 0.34900876224E+02 0.33105355030E+02
 0.31047686958E+02 0.29097809068E+02 0.27230916491E+02 0.25671891656E+02 0.24634114341E+02
 0.24269405421E+02 0.24634114341E+02 0.25671891656E+02 0.27230916491E+02 0.29097809068E+02
 0.31047686958E+02 0.33105355030E+02 0.34900876224E+02 0.28391567381E+02 0.28131301911E+02
 0.27418170164E+02 0.26428642342E+02 0.25385075017E+02 0.24498890001E+02 0.23957455208E+02
 0.23944319261E+02 0.24634114341E+02 0.26123116528E+02 0.28339353947E+02 0.31033964520E+02
 0.34737475083E+02 0.40661148422E+02 0.48106324276E+02 0.54545434046E+02 0.57111724123E+02
 0.54545434046E+02 0.48106324276E+02 0.40661148422E+02 0.34737475083E+02 0.31033964520E+02
 0.28339353947E+02 0.26123116528E+02 0.24634114341E+02 0.23944319261E+02 0.23957455208E+02
 0.24498890001E+02 0.25385075017E+02 0.26428642342E+02 0.27418170164E+02 0.28131301911E+02
 0.24161734980E+02 0.24054223394E+02 0.23759656905E+02 0.23365854225E+02 0.23012753598E+02
 0.22864390254E+02 0.23103111913E+02 0.23957455208E+02 0.25671891656E+02 0.28339353947E+02
 0.31759888781E+02 0.37468763718E+02 0.48490929276E+02 0.65169511155E+02 0.84303243244E+02
 0.99908472500E+02 0.10596172260E+03 0.99908472500E+02 0.84303243244E+02 0.65169511155E+02
 0.48490929276E+02 0.37468763718E+02 0.31759888781E+02 0.28339353947E+02 0.25671891656E+02
 0.23957455208E+02 0.23103111913E+02 0.22864390254E+02 0.23012753598E+02 0.23365854225E+02
 0.23759656905E+02 0.24054223394E+02 0.21634310378E+02 0.21632610339E+02 0.21616658099E+02
 0.21599953895E+02 0.21680023049E+02 0.22026674826E+02 0.22864390254E+02 0.24498890001E+02
 0.27230916491E+02 0.31033964520E+02 0.37468763718E+02 0.51759937514E+02 0.76710190763E+02
 0.11075906429E+03 0.14736530164E+03 0.17616971092E+03 0.18716861875E+03 0.17616971092E+03
 0.14736530164E+03 0.11075906429E+03 0.76710190763E+02 0.51759937514E+02 0.37468763718E+02
 0.31033964520E+02 0.27230916491E+02 0.24498890001E+02 0.22864390254E+02 0.22026674826E+02
 0.21680023049E+02 0.21599953895E+02 0.21616658099E+02 0.21632610339E+02 0.20318167796E+02
 0.20377786821E+02 0.20512857511E+02 0.20687506716E+02 0.21002712431E+02 0.21680023049E+02
 0.23012753598E+02 0.25385075017E+02 0.29097809068E+02 0.34737475083E+02 0.48490929276E+02
 0.76710190763E+02 0.12101152702E+03 0.17741869089E+03 0.23566717626E+03 0.28053879282E+03
 0.29752009457E+03 0.28053879282E+03 0.23566717626E+03 0.17741869089E+03 0.12101152702E+03
 0.76710190763E+02 0.48490929276E+02 0.34737475083E+02 0.29097809068E+02 0.25385075017E+02
 0.23012753598E+02 0.21680023049E+02 0.21002712431E+02 0.20687506716E+02 0.20512857511E+02
 0.20377786821E+02 0.19721252101E+02 0.19811697302E+02 0.20012262033E+02 0.20258503861E+02
 0.20687506716E+02 0.21599953895E+02 0.23365854225E+02 0.26428642342E+02 0.31047686958E+02
 0.40661148422E+02 0.65169511155E+02 0.11075906429E+03 0.17741869089E+03 0.25865652597E+03
 0.34051977564E+03 0.40282186454E+03 0.42628589643E+03 0.40282186454E+03 0.34051977564E+03
 0.25865652597E+03 0.17741869089E+03 0.11075906429E+03 0.65169511155E+02 0.40661148422E+02
 0.31047686958E+02 0.26428642342E+02 0.23365854225E+02 0.21599953895E+02 0.20687506716E+02
 0.20258503861E+02 0.20012262033E+02 0.19811697302E+02 0.19391586480E+02 0.19500761572E+02
 0.19735236078E+02 0.20012262033E+02 0.20512857511E+02 0.21616658099E+02 0.23759656905E+02
 0.27418170164E+02 0.33105355030E+02 0.48106324276E+02 0.84303243244E+02 0.14736530164E+03
 0.23566717626E+03 0.34051977564E+03 0.44472895851E+03 0.52353543314E+03 0.55314644900E+03
 0.52353543314E+03 0.44472895851E+03 0.34051977564E+03 0.23566717626E+03 0.14736530164E+03
 0.84303243244E+02 0.48106324276E+02 0.33105355030E+02 0.27418170164E+02 0.23759656905E+02
 0.21616658099E+02 0.20512857511E+02 0.20012262033E+02 0.19735236078E+02 0.19500761572E+02
 0.19108500488E+02 0.19233979563E+02 0.19500761572E+02 0.19811697302E+02 0.20377786821E+02
 0.21632610339E+02 0.24054223394E+02 0.28131301911E+02 0.34900876224E+02 0.54545434046E+02
 0.99908472500E+02 0.17616971092E+03 0.28053879282E+03 0.40282186454E+03 0.52353543314E+03
 0.61456315007E+03 0.64873410675E+03 0.61456315007E+03 0.52353543314E+03 0.40282186454E+03
 0.28053879282E+03 0.17616971092E+03 0.99908472500E+02 0.54545434046E+02 0.34900876224E+02
 0.28131301911E+02 0.24054223394E+02 0.21632610339E+02 0.20377786821E+02 0.19811697302E+02
 0.19500761572E+02 0.19233979563E+02 0.18975428760E+02 0.19108500488E+02 0.19391586480E+02
 0.19721252101E+02 0.20318167796E+02 0.21634310378E+02 0.24161734980E+02 0.28391567381E+02
 0.35633501081E+02 0.57111724123E+02 0.10596172260E+03 0.18716861875E+03 0.29752009457E+03
 0.42628589643E+03 0.55314644900E+03 0.64873410675E+03 0.68460828227E+03 0.64873410675E+03
 0.55314644900E+03 0.42628589643E+03 0.29752009457E+03 0.18716861875E+03 0.10596172260E+03
 0.57111724123E+02 0.35633501081E+02 0.28391567381E+02 0.24161734980E+02 0.21634310378E+02
 0.20318167796E+02 0.19721252101E+02 0.19391586480E+02 0.19108500488E+02 0.19108500488E+02
 0.19233979563E+02 0.19500761572E+02 0.19811697302E+02 0.20377786821E+02 0.21632610339E+02
 0.24054223394E+02 0.28131301911E+02 0.34900876224E+02 0.54545434046E+02 0.99908472500E+02
 0.17616971092E+03 0.28053879282E+03 0.40282186454E+03 0.52353543314E+03 0.61456315007E+03
 0.64873410675E+03 0.61456315007E+03 0.52353543314E+03 0.40282186454E+03 0.28053879282E+03
 0.17616971092E+03 0.99908472500E+02 0.54545434046E+02 0.34900876224E+02 0.28131301911E+02
 0.24054223394E+02 0.21632610339E+02 0.20377786821E+02 0.19811697302E+02 0.19500761572E+02
 0.19233979563E+02 0.19391586480E+02 0.19500761572E+02 0.19735236078E+02 0.20012262033E+02
 0.20512857511E+02 0.21616658099E+02 0.23759656905E+02 0.27418170164E+02 0.33105355030E+02
 0.48106324276E+02 0.84303243244E+02 0.14736530164E+03 0.23566717626E+03 0.34051977564E+03
 0.44472895851E+03 0.52353543314E+03 0.55314644900E+03 0.52353543314E+03 0.44472895851E+03
 0.34051977564E+03 0.23566717626E+03 0.14736530164E+03 0.84303243244E+02 0.48106324276E+02
 0.33105355030E+02 0.27418170164E+02 0.23759656905E+02 0.21616658099E+02 0.20512857511E+02
 0.20012262033E+02 0.19735236078E+02 0.19500761572E+02 0.19721252101E+02 0.19811697302E+02
 0.20012262033E+02 0.20258503861E+02 0.20687506716E+02 0.21599953895E+02 0.23365854225E+02
 0.26428642342E+02 0.31047686958E+02 0.40661148422E+02 0.65169511155E+02 0.11075906429E+03
 0.17741869089E+03 0.25865652597E+03 0.34051977564E+03 0.40282186454E+03 0.42628589643E+03
 0.40282186454E+03 0.34051977564E+03 0.25865652597E+03 0.17741869089E+03 0.11075906429E+03
 0.65169511155E+02 0.40661148422E+02 0.31047686958E+02 0.26428642342E+02 0.23365854225E+02
 0.21599953895E+02 0.20687506716E+02 0.20258503861E+02 0.20012262033E+02 0.19811697302E+02
 0.20318167796E+02 0.20377786821E+02 0.20512857511E+02 0.20687506716E+02 0.21002712431E+02
 0.21680023049E+02 0.23012753598E+02 0.25385075017E+02 0.29097809068E+02 0.34737475083E+02
 0.48490929276E+02 0.76710190763E+02 0.12101152702E+03 0.17741869089E+03 0.23566717626E+03
 0.28053879282E+03 0.29752009457E+03 0.28053879282E+03 0.23566717626E+03 0.17741869089E+03
 0.12101152702E+03 0.76710190763E+02 0.48490929276E+02 0.34737475083E+02 0.29097809068E+02
 0.25385075017E+02 0.23012753598E+02 0.21680023049E+02 0.21002712431E+02 0.20687506716E+02
 0.20512857511E+02 0.20377786821E+02 0.21634310378E+02 0.21632610339E+02 0.21616658099E+02
 0.21599953895E+02 0.21680023049E+02 0.22026674826E+02 0.22864390254E+02 0.24498890001E+02
 0.27230916491E+02 0.31033964520E+02 0.37468763718E+02 0.51759937514E+02 0.76710190763E+02
 0.11075906429E+03 0.14736530164E+03 0.17616971092E+03 0.18716861875E+03 0.17616971092E+03
 0.14736530164E+03 0.11075906429E+03 0.76710190763E+02 0.51759937514E+02 0.37468763718E+02
 0.31033964520E+02 0.27230916491E+02 0.24498890001E+02 0.22864390254E+02 0.22026674826E+02
 0.21680023049E+02 0.21599953895E+02 0.21616658099E+02 0.21632610339E+02 0.24161734980E+02
 0.24054223394E+02 0.23759656905E+02 0.23365854225E+02 0.23012753598E+02 0.22864390254E+02
 0.23103111913E+02 0.23957455208E+02 0.25671891656E+02 0.28339353947E+02 0.31759888781E+02
 0.37468763718E+02 0.48490929276E+02 0.65169511155E+02 0.84303243244E+02 0.99908472500E+02
 0.10596172260E+03 0.99908472500E+02 0.84303243244E+02 0.65169511155E+02 0.48490929276E+02
 0.37468763718E+02 0.31759888781E+02 0.28339353947E+02 0.25671891656E+02 0.23957455208E+02
 0.23103111913E+02 0.22864390254E+02 0.23012753598E+02 0.23365854225E+02 0.23759656905E+02
 0.24054223394E+02 0.28391567381E+02 0.28131301911E+02 0.27418170164E+02 0.26428642342E+02
 0.25385075017E+02 0.24498890001E+02 0.23957455208E+02 0.23944319261E+02 0.24634114341E+02
 0.26123116528E+02 0.28339353947E+02 0.31033964520E+02 0.34737475083E+02 0.40661148422E+02
 0.48106324276E+02 0.54545434046E+02 0.57111724123E+02 0.54545434046E+02 0.48106324276E+02
 0.40661148422E+02 0.34737475083E+02 0.31033964520E+02 0.28339353947E+02 0.26123116528E+02
 0.24634114341E+02 0.23944319261E+02 0.23957455208E+02 0.24498890001E+02 0.25385075017E+02
 0.26428642342E+02 0.27418170164E+02 0.28131301911E+02 0.35633501081E+02 0.34900876224E+02
 0.33105355030E+02 0.31047686958E+02 0.29097809068E+02 0.27230916491E+02 0.25671891656E+02
 0.24634114341E+02 0.24269405421E+02 0.24634114341E+02 0.25671891656E+02 0.27230916491E+02
 0.29097809068E+02 0.31047686958E+02 0.33105355030E+02 0.34900876224E+02 0.35633501081E+02
 0.34900876224E+02 0.33105355030E+02 0.31047686958E+02 0.29097809068E+02 0.27230916491E+02
 0.25671891656E+02 0.24634114341E+02 0.24269405421E+02 0.24634114341E+02 0.25671891656E+02
 0.27230916491E+02 0.29097809068E+02 0.31047686958E+02 0.33105355030E+02 0.34900876224E+02
 0.57111724123E+02 0.54545434046E+02 0.48106324276E+02 0.40661148422E+02 0.34737475083E+02
 0.31033964520E+02 0.28339353947E+02 0.26123116528E+02 0.24634114341E+02 0.23944319261E+02
 0.23957455208E+02 0.24498890001E+02 0.25385075017E+02 0.26428642342E+02 0.27418170164E+02
 0.28131301911E+02 0.28391567381E+02 0.28131301911E+02 0.27418170164E+02 0.26428642342E+02
 0.25385075017E+02 0.24498890001E+02 0.23957455208E+02 0.23944319261E+02 0.24634114341E+02
 0.26123116528E+02 0.28339353947E+02 0.31033964520E+02 0.34737475083E+02 0.40661148422E+02
 0.48106324276E+02 0.54545434046E+02 0.10596172260E+03 0.99908472500E+02 0.84303243244E+02
 0.65169511155E+02 0.48490929276E+02 0.37468763718E+02 0.31759888781E+02 0.28339353947E+02
 0.25671891656E+02 0.23957455208E+02 0.23103111913E+02 0.22864390254E+02 0.23012753598E+02
 0.23365854225E+02 0.23759656905E+02 0.24054223394E+02 0.24161734980E+02 0.24054223394E+02
 0.23759656905E+02 0.23365854225E+02 0.23012753598E+02 0.22864390254E+02 0.23103111913E+02
 0.23957455208E+02 0.25671891656E+02 0.28339353947E+02 0.31759888781E+02 0.37468763718E+02
 0.48490929276E+02 0.65169511155E+02 0.84303243244E+02 0.99908472500E+02 0.18716861875E+03
 0.17616971092E+03 0.14736530164E+03 0.11075906429E+03 0.76710190763E+02 0.51759937514E+02
 0.37468763718E+02 0.31033964520E+02 0.27230916491E+02 0.24498890001E+02 0.22864390254E+02
 0.22026674826E+02 0.21680023049E+02 0.21599953895E+02 0.21616658099E+02 0.21632610339E+02
 0.21634310378E+02 0.21632610339E+02 0.21616658099E+02 0.21599953895E+02 0.21680023049E+02
 0.22026674826E+02 0.22864390254E+02 0.24498890001E+02 0.27230916491E+02 0.31033964520E+02
 0.37468763718E+02 0.51759937514E+02 0.76710190763E+02 0.11075906429E+03 0.14736530164E+03
 0.17616971092E+03 0.29752009457E+03 0.28053879282E+03 0.23566717626E+03 0.17741869089E+03
 0.12101152702E+03 0.76710190763E+02 0.48490929276E+02 0.34737475083E+02 0.29097809068E+02
 0.25385075017E+02 0.23012753598E+02 0.21680023049E+02 0.21002712431E+02 0.20687506716E+02
 0.20512857511E+02 0.20377786821E+02 0.20318167796E+02 0.20377786821E+02 0.20512857511E+02
 0.20687506716E+02 0.21002712431E+02 0.21680023049E+02 0.23012753598E+02 0.25385075017E+02
 0.29097809068E+02 0.34737475083E+02 0.48490929276E+02 0.76710190763E+02 0.12101152702E+03
 0.17741869089E+03 0.23566717626E+03 0.28053879282E+03 0.42628589643E+03 0.40282186454E+03
 0.34051977564E+03 0.25865652597E+03 0.17741869089E+03 0.11075906429E+03 0.65169511155E+02
 0.40661148422E+02 0.31047686958E+02 0.26428642342E+02 0.23365854225E+02 0.21599953895E+02
 0.20687506716E+02 0.20258503861E+02 0.20012262033E+02 0.19811697302E+02 0.19721252101E+02
 0.19811697302E+02 0.20012262033E+02 0.20258503861E+02 0.20687506716E+02 0.21599953895E+02
 0.23365854225E+02 0.26428642342E+02 0.31047686958E+02 0.40661148422E+02 0.65169511155E+02
 0.11075906429E+03 0.17741869089E+03 0.25865652597E+03 0.34051977564E+03 0.40282186454E+03
 0.55314644900E+03 0.52353543314E+03 0.44472895851E+03 0.34051977564E+03 0.23566717626E+03
 0.14736530164E+03 0.84303243244E+02 0.48106324276E+02 0.33105355030E+02 0.27418170164E+02
 0.23759656905E+02 0.21616658099E+02 0.20512857511E+02 0.20012262033E+02 0.19735236078E+02
 0.19500761572E+02 0.19391586480E+02 0.19500761572E+02 0.19735236078E+02 0.20012262033E+02
 0.20512857511E+02 0.21616658099E+02 0.23759656905E+02 0.27418170164E+02 0.33105355030E+02
 0.48106324276E+02 0.84303243244E+02 0.14736530164E+03 0.23566717626E+03 0.34051977564E+03
 0.44472895851E+03 0.52353543314E+03 0.64873410675E+03 0.61456315007E+03 0.52353543314E+03
 0.40282186454E+03 0.28053879282E+03 0.17616971092E+03 0.99908472500E+02 0.54545434046E+02
 0.34900876224E+02 0.28131301911E+02 0.24054223394E+02 0.21632610339E+02 0.20377786821E+02
 0.19811697302E+02 0.19500761572E+02 0.19233979563E+02 0.19108500488E+02 0.19233979563E+02
 0.19500761572E+02 0.19811697302E+02 0.20377786821E+02 0.21632610339E+02 0.24054223394E+02
 0.28131301911E+02 0.34900876224E+02 0.54545434046E+02 0.99908472500E+02 0.17616971092E+03
 0.28053879282E+03 0.40282186454E+03 0.52353543314E+03 0.61456315007E+03 0.64666262781E+03
 0.61218274236E+03 0.52054183533E+03 0.39959400416E+03 0.27795404175E+03 0.17503335382E+03
 0.10047335449E+03 0.56483552799E+02 0.37673717215E+02 0.31387794550E+02 0.27728982415E+02
 0.25707172941E+02 0.24821621375E+02 0.24571366523E+02 0.24501125452E+02 0.24384928983E+02
 0.24310760862E+02 0.24384928983E+02 0.24501125452E+02 0.24571366523E+02 0.24821621375E+02
 0.25707172941E+02 0.27728982415E+02 0.31387794550E+02 0.37673717215E+02 0.56483552799E+02
 0.10047335449E+03 0.17503335382E+03 0.27795404175E+03 0.39959400416E+03 0.52054183533E+03
 0.61218274236E+03 0.61268122654E+03 0.57985316988E+03 0.49262464550E+03 0.37759336194E+03
 0.26213574672E+03 0.16484876196E+03 0.94882778664E+02 0.54087990475E+02 0.36926371538E+02
 0.31049441146E+02 0.27545395095E+02 0.25632171258E+02 0.24811485965E+02 0.24596064472E+02
 0.24548220632E+02 0.24450719364E+02 0.24384928983E+02 0.24450719364E+02 0.24548220632E+02
 0.24596064472E+02 0.24811485965E+02 0.25632171258E+02 0.27545395095E+02 0.31049441146E+02
 0.36926371538E+02 0.54087990475E+02 0.94882778664E+02 0.16484876196E+03 0.26213574672E+03
 0.37759336194E+03 0.49262464550E+03 0.57985316988E+03 0.52207538068E+03 0.49367361029E+03
 0.41828020388E+03 0.31914440476E+03 0.22031673714E+03 0.13816456780E+03 0.80459809417E+02
 0.48058273514E+02 0.35056043408E+02 0.30117985594E+02 0.27036452979E+02 0.25408458064E+02
 0.24748190876E+02 0.24609526580E+02 0.24606268113E+02 0.24548220632E+02 0.24501125452E+02
 0.24548220632E+02 0.24606268113E+02 0.24609526580E+02 0.24748190876E+02 0.25408458064E+02
 0.27036452979E+02 0.30117985594E+02 0.35056043408E+02 0.48058273514E+02 0.80459809417E+02
 0.13816456780E+03 0.22031673714E+03 0.31914440476E+03 0.41828020388E+03 0.49367361029E+03
 0.40169550549E+03 0.37926720323E+03 0.31987190501E+03 0.24227228427E+03 0.16598461909E+03
 0.10422360629E+03 0.62745738181E+02 0.41025415729E+02 0.32798611217E+02 0.28808502085E+02
 0.26322723106E+02 0.25077030662E+02 0.24618850139E+02 0.24566738359E+02 0.24609526580E+02
 0.24596064472E+02 0.24571366523E+02 0.24596064472E+02 0.24609526580E+02 0.24566738359E+02
 0.24618850139E+02 0.25077030662E+02 0.26322723106E+02 0.28808502085E+02 0.32798611217E+02
 0.41025415729E+02 0.62745738181E+02 0.10422360629E+03 0.16598461909E+03 0.24227228427E+03
 0.31987190501E+03 0.37926720323E+03 0.27941737835E+03 0.26328780709E+03 0.22078298153E+03
 0.16593096522E+03 0.11333036044E+03 0.72621244527E+02 0.47249279208E+02 0.35298290270E+02
 0.30498081519E+02 0.27384985700E+02 0.25578458488E+02 0.24762587645E+02 0.24544728229E+02
 0.24618850139E+02 0.24748190876E+02 0.24811485965E+02 0.24821621375E+02 0.24811485965E+02
 0.24748190876E+02 0.24618850139E+02 0.24544728229E+02 0.24762587645E+02 0.25578458488E+02
 0.27384985700E+02 0.30498081519E+02 0.35298290270E+02 0.47249279208E+02 0.72621244527E+02
 0.11333036044E+03 0.16593096522E+03 0.22078298153E+03 0.26328780709E+03 0.17473066301E+03
 0.16439388819E+03 0.13740474871E+03 0.10332928967E+03 0.71988985040E+02 0.49438548050E+02
 0.36903960749E+02 0.31473905716E+02 0.28250942308E+02 0.26088432381E+02 0.24992651964E+02
 0.24655076388E+02 0.24762587645E+02 0.25077030662E+02 0.25408458064E+02 0.25632171258E+02
 0.25707172941E+02 0.25632171258E+02 0.25408458064E+02 0.25077030662E+02 0.24762587645E+02
 0.24655076388E+02 0.24992651964E+02 0.26088432381E+02 0.28250942308E+02 0.31473905716E+02
 0.36903960749E+02 0.49438548050E+02 0.71988985040E+02 0.10332928967E+03 0.13740474871E+03
 0.16439388819E+03 0.98029583359E+02 0.92443488814E+02 0.78098860202E+02 0.60664407578E+02
 0.45708242848E+02 0.36097653518E+02 0.31317134975E+02 0.28446720007E+02 0.26313876361E+02
 0.25119980957E+02 0.24761800771E+02 0.24992651964E+02 0.25578458488E+02 0.26322723106E+02
 0.27036452979E+02 0.27545395095E+02 0.27728982415E+02 0.27545395095E+02 0.27036452979E+02
 0.26322723106E+02 0.25578458488E+02 0.24992651964E+02 0.24761800771E+02 0.25119980957E+02
 0.26313876361E+02 0.28446720007E+02 0.31317134975E+02 0.36097653518E+02 0.45708242848E+02
 0.60664407578E+02 0.78098860202E+02 0.92443488814E+02 0.52297829297E+02 0.50015387819E+02
 0.44328449680E+02 0.37858610906E+02 0.32861930611E+02 0.29847077075E+02 0.27637393672E+02
 0.25907343506E+02 0.24895592399E+02 0.24665163064E+02 0.25119980957E+02 0.26088432381E+02
 0.27384985700E+02 0.28808502085E+02 0.30117985594E+02 0.31049441146E+02 0.31387794550E+02
 0.31049441146E+02 0.30117985594E+02 0.28808502085E+02 0.27384985700E+02 0.26088432381E+02
 0.25119980957E+02 0.24665163064E+02 0.24895592399E+02 0.25907343506E+02 0.27637393672E+02
 0.29847077075E+02 0.32861930611E+02 0.37858610906E+02 0.44328449680E+02 0.50015387819E+02
 0.32388342705E+02 0.31797521879E+02 0.30369972687E+02 0.28768488481E+02 0.27241600412E+02
 0.25810034108E+02 0.24693049614E+02 0.24087934367E+02 0.24137138685E+02 0.24895592399E+02
 0.26313876361E+02 0.28250942308E+02 0.30498081519E+02 0.32798611217E+02 0.35056043408E+02
 0.36926371538E+02 0.37673717215E+02 0.36926371538E+02 0.35056043408E+02 0.32798611217E+02
 0.30498081519E+02 0.28250942308E+02 0.26313876361E+02 0.24895592399E+02 0.24137138685E+02
 0.24087934367E+02 0.24693049614E+02 0.25810034108E+02 0.27241600412E+02 0.28768488481E+02
 0.30369972687E+02 0.31797521879E+02 0.25359558599E+02 0.25174324821E+02 0.24672085563E+02
 0.23993562722E+02 0.23319350940E+02 0.22826415943E+02 0.22678735382E+02 0.23044206282E+02
 0.24087934367E+02 0.25907343506E+02 0.28446720007E+02 0.31473905716E+02 0.35298290270E+02
 0.41025415729E+02 0.48058273514E+02 0.54087990475E+02 0.56483552799E+02 0.54087990475E+02
 0.48058273514E+02 0.41025415729E+02 0.35298290270E+02 0.31473905716E+02 0.28446720007E+02
 0.25907343506E+02 0.24087934367E+02 0.23044206282E+02 0.22678735382E+02 0.22826415943E+02
 0.23319350940E+02 0.23993562722E+02 0.24672085563E+02 0.25174324821E+02 0.21021493253E+02
 0.20977303539E+02 0.20862352983E+02 0.20737242604E+02 0.20707756375E+02 0.20907197932E+02
 0.21494295530E+02 0.22678735382E+02 0.24693049614E+02 0.27637393672E+02 0.31317134975E+02
 0.36903960749E+02 0.47249279208E+02 0.62745738181E+02 0.80459809417E+02 0.94882778664E+02
 0.10047335449E+03 0.94882778664E+02 0.80459809417E+02 0.62745738181E+02 0.47249279208E+02
 0.36903960749E+02 0.31317134975E+02 0.27637393672E+02 0.24693049614E+02 0.22678735382E+02
 0.21494295530E+02 0.20907197932E+02 0.20707756375E+02 0.20737242604E+02 0.20862352983E+02
 0.20977303539E+02 0.18344705791E+02 0.18395133671E+02 0.18529559180E+02 0.18743400567E+02
 0.19107115780E+02 0.19761987184E+02 0.20907197932E+02 0.22826415943E+02 0.25810034108E+02
 0.29847077075E+02 0.36097653518E+02 0.49438548050E+02 0.72621244527E+02 0.10422360629E+03
 0.13816456780E+03 0.16484876196E+03 0.17503335382E+03 0.16484876196E+03 0.13816456780E+03
 0.10422360629E+03 0.72621244527E+02 0.49438548050E+02 0.36097653518E+02 0.29847077075E+02
 0.25810034108E+02 0.22826415943E+02 0.20907197932E+02 0.19761987184E+02 0.19107115780E+02
 0.18743400567E+02 0.18529559180E+02 0.18395133671E+02 0.16846602570E+02 0.16949681046E+02
 0.17212749011E+02 0.17588859323E+02 0.18156052451E+02 0.19107115780E+02 0.20707756375E+02
 0.23319350940E+02 0.27241600412E+02 0.32861930611E+02 0.45708242848E+02 0.71988985040E+02
 0.11333036044E+03 0.16598461909E+03 0.22031673714E+03 0.26213574672E+03 0.27795404175E+03
 0.26213574672E+03 0.22031673714E+03 0.16598461909E+03 0.11333036044E+03 0.71988985040E+02
 0.45708242848E+02 0.32861930611E+02 0.27241600412E+02 0.23319350940E+02 0.20707756375E+02
 0.19107115780E+02 0.18156052451E+02 0.17588859323E+02 0.17212749011E+02 0.16949681046E+02
 0.16067325024E+02 0.16194935160E+02 0.16507284097E+02 0.16933429236E+02 0.17588859323E+02
 0.18743400567E+02 0.20737242604E+02 0.23993562722E+02 0.28768488481E+02 0.37858610906E+02
 0.60664407578E+02 0.10332928967E+03 0.16593096522E+03 0.24227228427E+03 0.31914440476E+03
 0.37759336194E+03 0.39959400416E+03 0.37759336194E+03 0.31914440476E+03 0.24227228427E+03
 0.16593096522E+03 0.10332928967E+03 0.60664407578E+02 0.37858610906E+02 0.28768488481E+02
 0.23993562722E+02 0.20737242604E+02 0.18743400567E+02 0.17588859323E+02 0.16933429236E+02
 0.16507284097E+02 0.16194935160E+02 0.15591218634E+02 0.15732908984E+02 0.16067080591E+02
 0.16507284097E+02 0.17212749011E+02 0.18529559180E+02 0.20862352983E+02 0.24672085563E+02
 0.30369972687E+02 0.44328449680E+02 0.78098860202E+02 0.13740474871E+03 0.22078298153E+03
 0.31987190501E+03 0.41828020388E+03 0.49262464550E+03 0.52054183533E+03 0.49262464550E+03
 0.41828020388E+03 0.31987190501E+03 0.22078298153E+03 0.13740474871E+03 0.78098860202E+02
 0.44328449680E+02 0.30369972687E+02 0.24672085563E+02 0.20862352983E+02 0.18529559180E+02
 0.17212749011E+02 0.16507284097E+02 0.16067080591E+02 0.15732908984E+02 0.15220096389E+02
 0.15374884875E+02 0.15732908984E+02 0.16194935160E+02 0.16949681046E+02 0.18395133671E+02
 0.20977303539E+02 0.25174324821E+02 0.31797521879E+02 0.50015387819E+02 0.92443488814E+02
 0.16439388819E+03 0.26328780709E+03 0.37926720323E+03 0.49367361029E+03 0.57985316988E+03
 0.61218274236E+03 0.57985316988E+03 0.49367361029E+03 0.37926720323E+03 0.26328780709E+03
 0.16439388819E+03 0.92443488814E+02 0.50015387819E+02 0.31797521879E+02 0.25174324821E+02
 0.20977303539E+02 0.18395133671E+02 0.16949681046E+02 0.16194935160E+02 0.15732908984E+02
 0.15374884875E+02 0.15058919903E+02 0.15220096389E+02 0.15591218634E+02 0.16067325024E+02
 0.16846602570E+02 0.18344705791E+02 0.21021493253E+02 0.25359558599E+02 0.32388342705E+02
 0.52297829297E+02 0.98029583359E+02 0.17473066301E+03 0.27941737835E+03 0.40169550549E+03
 0.52207538068E+03 0.61268122654E+03 0.64666262781E+03 0.61268122654E+03 0.52207538068E+03
 0.40169550549E+03 0.27941737835E+03 0.17473066301E+03 0.98029583359E+02 0.52297829297E+02
 0.32388342705E+02 0.25359558599E+02 0.21021493253E+02 0.18344705791E+02 0.16846602570E+02
 0.16067325024E+02 0.15591218634E+02 0.15220096389E+02 0.15220096389E+02 0.15374884875E+02
 0.15732908984E+02 0.16194935160E+02 0.16949681046E+02 0.18395133671E+02 0.20977303539E+02
 0.25174324821E+02 0.31797521879E+02 0.50015387819E+02 0.92443488814E+02 0.16439388819E+03
 0.26328780709E+03 0.37926720323E+03 0.49367361029E+03 0.57985316988E+03 0.61218274236E+03
 0.57985316988E+03 0.49367361029E+03 0.37926720323E+03 0.26328780709E+03 0.16439388819E+03
 0.92443488814E+02 0.50015387819E+02 0.31797521879E+02 0.25174324821E+02 0.20977303539E+02
 0.18395133671E+02 0.16949681046E+02 0.16194935160E+02 0.15732908984E+02 0.15374884875E+02
 0.15591218634E+02 0.15732908984E+02 0.16067080591E+02 0.16507284097E+02 0.17212749011E+02
 0.18529559180E+02 0.20862352983E+02 0.24672085563E+02 0.30369972687E+02 0.44328449680E+02
 0.78098860202E+02 0.13740474871E+03 0.22078298153E+03 0.31987190501E+03 0.41828020388E+03
 0.49262464550E+03 0.52054183533E+03 0.49262464550E+03 0.41828020388E+03 0.31987190501E+03
 0.22078298153E+03 0.13740474871E+03 0.78098860202E+02 0.44328449680E+02 0.30369972687E+02