   4   4   0   0
  0.1991600E+02  0.3688905E-09  0.3688905E-09  0.5854194E-09  0.5000000E-15
  1.000000000000000E-004
  CAR 
 FeSe                                    
     12.50440657    -13.15384768  301      3.63216427      1.00000000
    -13.154  0.0000E+00  0.0000E+00
    -13.068  0.0000E+00  0.0000E+00
    -12.983  0.0000E+00  0.0000E+00
    -12.897  0.0000E+00  0.0000E+00
    -12.812  0.5272E-29  0.4509E-30
    -12.726  0.5124E-26  0.4387E-27
    -12.641  0.3056E-23  0.2618E-24
    -12.555  0.1256E-20  0.1077E-21
    -12.470  0.3555E-18  0.3051E-19
    -12.384  0.6924E-16  0.5953E-17
    -12.299  0.9293E-14  0.8008E-15
    -12.213  0.8555E-12  0.7397E-13
    -12.128  0.5403E-10  0.4695E-11
    -12.042  0.2335E-08  0.2044E-09
    -11.956  0.6885E-07  0.6093E-08
    -11.871  0.1377E-05  0.1239E-06
    -11.785  0.1849E-04  0.1705E-05
    -11.700  0.1634E-03  0.1568E-04
    -11.614  0.9107E-03  0.9357E-04
    -11.529  0.2853E-02  0.3376E-03
    -11.443  0.2736E-02  0.5716E-03
    -11.358 -0.1134E-01 -0.3983E-03
    -11.272 -0.3395E-01 -0.3302E-02
    -11.187  0.1861E-01 -0.1710E-02
    -11.101  0.2606E+00  0.2057E-01
    -11.016  0.6523E+00  0.7636E-01
    -10.930  0.1030E+01  0.1645E+00
    -10.845  0.1294E+01  0.2752E+00
    -10.759  0.1373E+01  0.3926E+00
    -10.674  0.1362E+01  0.5091E+00
    -10.588  0.1517E+01  0.6388E+00
    -10.502  0.1707E+01  0.7848E+00
    -10.417  0.1695E+01  0.9297E+00
    -10.331  0.1826E+01  0.1086E+01
    -10.246  0.2682E+01  0.1315E+01
    -10.160  0.4664E+01  0.1714E+01
    -10.075  0.7168E+01  0.2327E+01
     -9.989  0.8284E+01  0.3036E+01
     -9.904  0.6814E+01  0.3619E+01
     -9.818  0.3743E+01  0.3939E+01
     -9.733  0.1056E+01  0.4029E+01
     -9.647 -0.1390E+00  0.4017E+01
     -9.562 -0.2118E+00  0.3999E+01
     -9.476 -0.3341E-01  0.3996E+01
     -9.391  0.2602E-01  0.3998E+01
     -9.305  0.1514E-01  0.4000E+01
     -9.220  0.3759E-02  0.4000E+01
     -9.134  0.5407E-03  0.4000E+01
     -9.049  0.4896E-04  0.4000E+01
     -8.963  0.2893E-05  0.4000E+01
     -8.877  0.1137E-06  0.4000E+01
     -8.792  0.3006E-08  0.4000E+01
     -8.706  0.5387E-10  0.4000E+01
     -8.621  0.6572E-12  0.4000E+01
     -8.535  0.5577E-14  0.4000E+01
     -8.450  0.0000E+00  0.4000E+01
     -8.364  0.0000E+00  0.4000E+01
     -8.279  0.0000E+00  0.4000E+01
     -8.193  0.0000E+00  0.4000E+01
     -8.108  0.0000E+00  0.4000E+01
     -8.022  0.0000E+00  0.4000E+01
     -7.937  0.0000E+00  0.4000E+01
     -7.851  0.0000E+00  0.4000E+01
     -7.766  0.0000E+00  0.4000E+01
     -7.680  0.0000E+00  0.4000E+01
     -7.595  0.0000E+00  0.4000E+01
     -7.509  0.0000E+00  0.4000E+01
     -7.424  0.0000E+00  0.4000E+01
     -7.338  0.0000E+00  0.4000E+01
     -7.252  0.0000E+00  0.4000E+01
     -7.167  0.0000E+00  0.4000E+01
     -7.081  0.0000E+00  0.4000E+01
     -6.996  0.0000E+00  0.4000E+01
     -6.910  0.0000E+00  0.4000E+01
     -6.825  0.0000E+00  0.4000E+01
     -6.739  0.0000E+00  0.4000E+01
     -6.654  0.0000E+00  0.4000E+01
     -6.568  0.0000E+00  0.4000E+01
     -6.483  0.0000E+00  0.4000E+01
     -6.397  0.0000E+00  0.4000E+01
     -6.312  0.0000E+00  0.4000E+01
     -6.226  0.0000E+00  0.4000E+01
     -6.141  0.0000E+00  0.4000E+01
     -6.055  0.0000E+00  0.4000E+01
     -5.970  0.0000E+00  0.4000E+01
     -5.884  0.0000E+00  0.4000E+01
     -5.798  0.0000E+00  0.4000E+01
     -5.713  0.0000E+00  0.4000E+01
     -5.627  0.0000E+00  0.4000E+01
     -5.542  0.0000E+00  0.4000E+01
     -5.456  0.0000E+00  0.4000E+01
     -5.371  0.0000E+00  0.4000E+01
     -5.285  0.0000E+00  0.4000E+01
     -5.200  0.0000E+00  0.4000E+01
     -5.114  0.0000E+00  0.4000E+01
     -5.029  0.0000E+00  0.4000E+01
     -4.943  0.0000E+00  0.4000E+01
     -4.858  0.0000E+00  0.4000E+01
     -4.772  0.0000E+00  0.4000E+01
     -4.687  0.0000E+00  0.4000E+01
     -4.601  0.0000E+00  0.4000E+01
     -4.516  0.0000E+00  0.4000E+01
     -4.430  0.0000E+00  0.4000E+01
     -4.345  0.0000E+00  0.4000E+01
     -4.259  0.0000E+00  0.4000E+01
     -4.173  0.0000E+00  0.4000E+01
     -4.088  0.0000E+00  0.4000E+01
     -4.002  0.0000E+00  0.4000E+01
     -3.917  0.2515E-26  0.4000E+01
     -3.831  0.1705E-23  0.4000E+01
     -3.746  0.7974E-21  0.4000E+01
     -3.660  0.2566E-18  0.4000E+01
     -3.575  0.5675E-16  0.4000E+01
     -3.489  0.8622E-14  0.4000E+01
     -3.404  0.8966E-12  0.4000E+01
     -3.318  0.6361E-10  0.4000E+01
     -3.233  0.3067E-08  0.4000E+01
     -3.147  0.9997E-07  0.4000E+01
     -3.062  0.2184E-05  0.4000E+01
     -2.976  0.3159E-04  0.4000E+01
     -2.891  0.2970E-03  0.4000E+01
     -2.805  0.1754E-02  0.4000E+01
     -2.719  0.6060E-02  0.4001E+01
     -2.634  0.9599E-02  0.4002E+01
     -2.548 -0.6253E-02  0.4001E+01
     -2.463 -0.5359E-01  0.3996E+01
     -2.377 -0.5459E-01  0.3992E+01
     -2.292  0.2865E+00  0.4016E+01
     -2.206  0.1446E+01  0.4140E+01
     -2.121  0.3415E+01  0.4432E+01
     -2.035  0.5219E+01  0.4878E+01
     -1.950  0.6019E+01  0.5393E+01
     -1.864  0.5980E+01  0.5904E+01
     -1.779  0.5403E+01  0.6367E+01
     -1.693  0.4317E+01  0.6736E+01
     -1.608  0.3166E+01  0.7007E+01
     -1.522  0.2501E+01  0.7221E+01
     -1.437  0.2075E+01  0.7398E+01
     -1.351  0.1638E+01  0.7538E+01
     -1.266  0.1482E+01  0.7665E+01
     -1.180  0.1408E+01  0.7785E+01
     -1.094  0.1092E+01  0.7879E+01
     -1.009  0.1216E+01  0.7983E+01
     -0.923  0.2145E+01  0.8166E+01
     -0.838  0.2786E+01  0.8404E+01
     -0.752  0.2735E+01  0.8638E+01
     -0.667  0.3124E+01  0.8905E+01
     -0.581  0.4533E+01  0.9293E+01
     -0.496  0.6750E+01  0.9870E+01
     -0.410  0.9247E+01  0.1066E+02
     -0.325  0.1045E+02  0.1156E+02
     -0.239  0.9228E+01  0.1234E+02
     -0.154  0.6692E+01  0.1292E+02
     -0.068  0.4702E+01  0.1332E+02
      0.017  0.4013E+01  0.1366E+02
      0.103  0.4643E+01  0.1406E+02
      0.188  0.6147E+01  0.1459E+02
      0.274  0.7026E+01  0.1519E+02
      0.359  0.5806E+01  0.1568E+02
      0.445  0.3090E+01  0.1595E+02
      0.531  0.8318E+00  0.1602E+02
      0.616 -0.8071E-01  0.1601E+02
      0.702 -0.1736E+00  0.1600E+02
      0.787 -0.6087E-01  0.1599E+02
      0.873  0.2095E+00  0.1601E+02
      0.958  0.6462E+00  0.1606E+02
      1.044  0.9242E+00  0.1614E+02
      1.129  0.1069E+01  0.1623E+02
      1.215  0.1416E+01  0.1636E+02
      1.300  0.1492E+01  0.1648E+02
      1.386  0.9774E+00  0.1657E+02
      1.471  0.9779E+00  0.1665E+02
      1.557  0.2038E+01  0.1683E+02
      1.642  0.3094E+01  0.1709E+02
      1.728  0.3850E+01  0.1742E+02
      1.813  0.4686E+01  0.1782E+02
      1.899  0.4951E+01  0.1824E+02
      1.985  0.4446E+01  0.1862E+02
      2.070  0.4040E+01  0.1897E+02
      2.156  0.3834E+01  0.1930E+02
      2.241  0.3201E+01  0.1957E+02
      2.327  0.2914E+01  0.1982E+02
      2.412  0.3999E+01  0.2016E+02
      2.498  0.5369E+01  0.2062E+02
      2.583  0.5964E+01  0.2113E+02
      2.669  0.6084E+01  0.2165E+02
      2.754  0.6058E+01  0.2217E+02
      2.840  0.6641E+01  0.2274E+02
      2.925  0.8606E+01  0.2347E+02
      3.011  0.1070E+02  0.2439E+02
      3.096  0.1041E+02  0.2528E+02
      3.182  0.8062E+01  0.2597E+02
      3.267  0.6565E+01  0.2653E+02
      3.353  0.6074E+01  0.2705E+02
      3.438  0.4782E+01  0.2746E+02
      3.524  0.3077E+01  0.2772E+02
      3.610  0.2522E+01  0.2794E+02
      3.695  0.2938E+01  0.2819E+02
      3.781  0.2796E+01  0.2843E+02
      3.866  0.1667E+01  0.2857E+02
      3.952  0.8717E+00  0.2864E+02
      4.037  0.1492E+01  0.2877E+02
      4.123  0.2538E+01  0.2899E+02
      4.208  0.2436E+01  0.2920E+02
      4.294  0.1725E+01  0.2935E+02
      4.379  0.1903E+01  0.2951E+02
      4.465  0.3228E+01  0.2978E+02
      4.550  0.5244E+01  0.3023E+02
      4.636  0.7117E+01  0.3084E+02
      4.721  0.7763E+01  0.3151E+02
      4.807  0.7157E+01  0.3212E+02
      4.892  0.6260E+01  0.3265E+02
      4.978  0.5663E+01  0.3314E+02
      5.064  0.5168E+01  0.3358E+02
      5.149  0.4493E+01  0.3396E+02
      5.235  0.3816E+01  0.3429E+02
      5.320  0.3206E+01  0.3456E+02
      5.406  0.2605E+01  0.3479E+02
      5.491  0.2409E+01  0.3499E+02
      5.577  0.2631E+01  0.3522E+02
      5.662  0.2730E+01  0.3545E+02
      5.748  0.2460E+01  0.3566E+02
      5.833  0.1812E+01  0.3582E+02
      5.919  0.1040E+01  0.3591E+02
      6.004  0.5617E+00  0.3595E+02
      6.090  0.3576E+00  0.3598E+02
      6.175  0.1778E+00  0.3600E+02
      6.261  0.2742E-01  0.3600E+02
      6.346 -0.1960E-01  0.3600E+02
      6.432 -0.9739E-02  0.3600E+02
      6.517  0.3059E-02  0.3600E+02
      6.603  0.1460E-01  0.3600E+02
      6.689  0.2190E-01  0.3600E+02
      6.774  0.1439E-01  0.3600E+02
      6.860 -0.3009E-04  0.3600E+02
      6.945 -0.2500E-02  0.3600E+02
      7.031  0.1566E-01  0.3601E+02
      7.116  0.4807E-01  0.3601E+02
      7.202  0.7595E-01  0.3602E+02
      7.287  0.7848E-01  0.3602E+02
      7.373  0.7999E-01  0.3603E+02
      7.458  0.1256E+00  0.3604E+02
      7.544  0.1547E+00  0.3605E+02
      7.629  0.1054E+00  0.3606E+02
      7.715  0.6294E-01  0.3607E+02
      7.800  0.9895E-01  0.3608E+02
      7.886  0.1763E+00  0.3609E+02
      7.971  0.2564E+00  0.3611E+02
      8.057  0.3380E+00  0.3614E+02
      8.143  0.3511E+00  0.3617E+02
      8.228  0.2763E+00  0.3620E+02
      8.314  0.3480E+00  0.3623E+02
      8.399  0.6592E+00  0.3628E+02
      8.485  0.1007E+01  0.3637E+02
      8.570  0.1454E+01  0.3649E+02
      8.656  0.2032E+01  0.3667E+02
      8.741  0.2110E+01  0.3685E+02
      8.827  0.1745E+01  0.3700E+02
      8.912  0.2223E+01  0.3719E+02
      8.998  0.3493E+01  0.3748E+02
      9.083  0.3777E+01  0.3781E+02
      9.169  0.2667E+01  0.3804E+02
      9.254  0.1641E+01  0.3818E+02
      9.340  0.1641E+01  0.3832E+02
      9.425  0.2301E+01  0.3851E+02
      9.511  0.2687E+01  0.3874E+02
      9.596  0.2129E+01  0.3893E+02
      9.682  0.1105E+01  0.3902E+02
      9.768  0.6745E+00  0.3908E+02
      9.853  0.1148E+01  0.3918E+02
      9.939  0.1896E+01  0.3934E+02
     10.024  0.2147E+01  0.3952E+02
     10.110  0.1842E+01  0.3968E+02
     10.195  0.1408E+01  0.3980E+02
     10.281  0.9829E+00  0.3988E+02
     10.366  0.5524E+00  0.3993E+02
     10.452  0.3229E+00  0.3996E+02
     10.537  0.2887E+00  0.3998E+02
     10.623  0.1896E+00  0.4000E+02
     10.708  0.3572E-01  0.4000E+02
     10.794 -0.2302E-01  0.4000E+02
     10.879 -0.1021E-01  0.4000E+02
     10.965  0.1464E-02  0.4000E+02
     11.050  0.1830E-02  0.4000E+02
     11.136  0.5190E-03  0.4000E+02
     11.221  0.7729E-04  0.4000E+02
     11.307  0.6950E-05  0.4000E+02
     11.393  0.3981E-06  0.4000E+02
     11.478  0.1493E-07  0.4000E+02
     11.564  0.3723E-09  0.4000E+02
     11.649  0.6237E-11  0.4000E+02
     11.735  0.7064E-13  0.4000E+02
     11.820  0.5556E-15  0.4000E+02
     11.906  0.0000E+00  0.4000E+02
     11.991  0.0000E+00  0.4000E+02
     12.077  0.0000E+00  0.4000E+02
     12.162  0.0000E+00  0.4000E+02
     12.248  0.0000E+00  0.4000E+02
     12.333  0.0000E+00  0.4000E+02
     12.419  0.0000E+00  0.4000E+02
     12.504  0.0000E+00  0.4000E+02
