    4    4    1    1
  0.1991600E+02  0.3688905E-09  0.3688905E-09  0.5854194E-09  0.5000000E-15
  1.000000000000000E-004
  CAR 
 FeSe                                    
     28     60     20
 
  0.0000000E+00  0.0000000E+00  0.0000000E+00  0.2057613E-02
    1      -11.153848   1.000000
    2      -10.036352   1.000000
    3       -2.266002   1.000000
    4       -0.907769   1.000000
    5       -0.487334   1.000000
    6       -0.487334   1.000000
    7        0.374749   1.000000
    8        0.374749   1.000000
    9        0.896989   1.000000
   10        2.942097   0.999972
   11        2.964930   0.999946
   12        3.713364   0.120964
   13        3.857680  -0.043998
   14        3.857680  -0.043998
   15        4.520230   0.000000
   16        4.674254   0.000000
   17        6.113796   0.000000
   18        6.113796   0.000000
   19        6.654239   0.000000
   20        8.695801   0.000000
 
  0.1111111E+00  0.0000000E+00  0.0000000E+00  0.8230453E-02
    1      -11.084108   1.000000
    2      -10.023094   1.000000
    3       -2.160801   1.000000
    4       -0.862165   1.000000
    5       -0.642280   1.000000
    6       -0.466180   1.000000
    7        0.127922   1.000000
    8        0.349288   1.000000
    9        0.977105   1.000000
   10        2.934667   0.999977
   11        2.939369   0.999974
   12        3.487327   1.027014
   13        3.625922   0.532990
   14        3.748146   0.021204
   15        4.562847   0.000000
   16        4.881849   0.000000
   17        5.578652   0.000000
   18        6.079191   0.000000
   19        7.250884   0.000000
   20        8.929955   0.000000
 
  0.2222222E+00  0.0000000E+00  0.0000000E+00  0.8230453E-02
    1      -10.889822   1.000000
    2      -10.000579   1.000000
    3       -1.870460   1.000000
    4       -1.010166   1.000000
    5       -0.882393   1.000000
    6       -0.402111   1.000000
    7       -0.319615   1.000000
    8        0.273839   1.000000
    9        1.210012   1.000000
   10        2.707324   1.000000
   11        2.902017   0.999992
   12        3.211776   0.995242
   13        3.376360   1.030261
   14        3.452475   1.050292
   15        4.689640   0.000000
   16        4.886118   0.000000
   17        5.019709   0.000000
   18        5.969832   0.000000
   19        8.089324   0.000000
   20        9.261723   0.000000
 
  0.3333333E+00  0.0000000E+00  0.0000000E+00  0.8230453E-02
    1      -10.616065   1.000000
    2      -10.015258   1.000000
    3       -1.637492   1.000000
    4       -1.347210   1.000000
    5       -1.201732   1.000000
    6       -0.357252   1.000000
    7       -0.295951   1.000000
    8        0.152676   1.000000
    9        1.572181   1.000000
   10        2.458582   1.000000
   11        2.825480   0.999999
   12        3.026171   0.999741
   13        3.039388   0.999648
   14        3.053408   0.999520
   15        4.682355   0.000000
   16        4.689244   0.000000
   17        4.907556   0.000000
   18        5.776355   0.000000
   19        9.006146   0.000000
   20        9.590276   0.000000
 
  0.4444444E+00  0.0000000E+00  0.0000000E+00  0.8230453E-02
    1      -10.334073   1.000000
    2      -10.120234   1.000000
    3       -1.795686   1.000000
    4       -1.732987   1.000000
    5       -0.790186   1.000000
    6       -0.435892   1.000000
    7       -0.155695   1.000000
    8        0.001568   1.000000
    9        2.028057   1.000000
   10        2.424305   1.000000
   11        2.531245   1.000000
   12        2.625592   1.000000
   13        2.838628   0.999999
   14        2.885010   0.999995
   15        4.541788   0.000000
   16        4.550560   0.000000
   17        5.196159   0.000000
   18        5.505463   0.000000
   19        9.833015   0.000000
   20        9.924367   0.000000
 
  0.1111111E+00  0.1111111E+00  0.0000000E+00  0.8230453E-02
    1      -11.015723   1.000000
    2      -10.008373   1.000000
    3       -2.057899   1.000000
    4       -0.804529   1.000000
    5       -0.791301   1.000000
    6       -0.428639   1.000000
    7       -0.061898   1.000000
    8        0.290088   1.000000
    9        1.042938   1.000000
   10        2.921722   0.999985
   11        2.951162   0.999963
   12        3.182177   0.996129
   13        3.552664   0.872983
   14        3.620169   0.563268
   15        4.588345   0.000000
   16        4.991354   0.000000
   17        5.505460   0.000000
   18        5.690278   0.000000
   19        7.736574   0.000000
   20        9.291875   0.000000
 
  0.2222222E+00  0.1111111E+00  0.0000000E+00  0.1646091E-01
    1      -10.825527   1.000000
    2       -9.981370   1.000000
    3       -1.781260   1.000000
    4       -1.111172   1.000000
    5       -0.823560   1.000000
    6       -0.439558   1.000000
    7       -0.363502   1.000000
    8        0.218363   1.000000
    9        1.244871   1.000000
   10        2.638007   1.000000
   11        2.871798   0.999997
   12        3.011034   0.999820
   13        3.340444   1.014072
   14        3.377359   1.030743
   15        4.626190   0.000000
   16        4.957263   0.000000
   17        5.013120   0.000000
   18        5.554399   0.000000
   19        8.477997   0.000000
   20        9.798624   0.000000
 
  0.3333333E+00  0.1111111E+00  0.0000000E+00  0.1646091E-01
    1      -10.558688   1.000000
    2       -9.988429   1.000000
    3       -1.664425   1.000000
    4       -1.358486   1.000000
    5       -1.151840   1.000000
    6       -0.354664   1.000000
    7       -0.273813   1.000000
    8        0.118311   1.000000
    9        1.568393   1.000000
   10        2.309966   1.000000
   11        2.774267   1.000000
   12        2.862798   0.999998
   13        3.047112   0.999581
   14        3.147119   0.997425
   15        4.494693   0.000000
   16        4.647505   0.000000
   17        4.942823   0.000000
   18        5.423600   0.000000
   19        9.243425   0.000000
   20       10.176545   0.000000
 
  0.4444444E+00  0.1111111E+00  0.0000000E+00  0.1646091E-01
    1      -10.286209   1.000000
    2      -10.083259   1.000000
    3       -1.835577   1.000000
    4       -1.758415   1.000000
    5       -0.707235   1.000000
    6       -0.375476   1.000000
    7       -0.159559   1.000000
    8       -0.022804   1.000000
    9        1.935569   1.000000
   10        2.151759   1.000000
   11        2.652100   1.000000
   12        2.667767   1.000000
   13        2.835523   0.999999
   14        2.903483   0.999991
   15        4.393539   0.000003
   16        4.455769   0.000000
   17        5.063894   0.000000
   18        5.240915   0.000000
   19       10.048026   0.000000
   20       10.504407   0.000000
 
  0.2222222E+00  0.2222222E+00  0.0000000E+00  0.8230453E-02
    1      -10.647793   1.000000
    2       -9.940620   1.000000
    3       -1.635203   1.000000
    4       -1.237819   1.000000
    5       -0.970938   1.000000
    6       -0.527139   1.000000
    7       -0.290076   1.000000
    8        0.157784   1.000000
    9        1.371238   1.000000
   10        2.357607   1.000000
   11        2.704802   1.000000
   12        2.771745   1.000000
   13        3.225103   0.995072
   14        3.294981   1.000559
   15        4.676034   0.000000
   16        4.783453   0.000000
   17        4.878099   0.000000
   18        5.047333   0.000000
   19        8.891202   0.000000
   20       10.190856   0.000000
 
  0.3333333E+00  0.2222222E+00  0.0000000E+00  0.1646091E-01
    1      -10.402042   1.000000
    2       -9.924503   1.000000
    3       -1.814969   1.000000
    4       -1.492440   1.000000
    5       -0.920704   1.000000
    6       -0.326784   1.000000
    7       -0.218772   1.000000
    8        0.116164   1.000000
    9        1.590838   1.000000
   10        2.045066   1.000000
   11        2.487911   1.000000
   12        2.606822   1.000000
   13        3.050775   0.999546
   14        3.250243   0.995509
   15        4.346766   0.000014
   16        4.459471   0.000000
   17        4.799476   0.000000
   18        4.970427   0.000000
   19        9.037489   0.000000
   20        9.989241   0.000000
 
  0.4444444E+00  0.2222222E+00  0.0000000E+00  0.1646091E-01
    1      -10.158473   1.000000
    2       -9.988558   1.000000
    3       -1.971280   1.000000
    4       -1.875333   1.000000
    5       -0.460099   1.000000
    6       -0.233245   1.000000
    7       -0.151461   1.000000
    8       -0.008511   1.000000
    9        1.804053   1.000000
   10        1.890234   1.000000
   11        2.391277   1.000000
   12        2.448195   1.000000
   13        2.958027   0.999956
   14        3.107414   0.998614
   15        4.083708   0.003814
   16        4.171637   0.001062
   17        4.871451   0.000000
   18        4.919234   0.000000
   19        9.232764   0.000000
   20        9.628697   0.000000
 
  0.3333333E+00  0.3333333E+00  0.0000000E+00  0.8230453E-02
    1      -10.191938   1.000000
    2       -9.869608   1.000000
    3       -2.038022   1.000000
    4       -1.809593   1.000000
    5       -0.520692   1.000000
    6       -0.230508   1.000000
    7       -0.161487   1.000000
    8        0.205955   1.000000
    9        1.680356   1.000000
   10        1.837471   1.000000
   11        2.136502   1.000000
   12        2.351705   1.000000
   13        3.018129   0.999786
   14        3.310629   1.004161
   15        4.068032   0.004353
   16        4.103927   0.003058
   17        4.697644   0.000000
   18        4.816258   0.000000
   19        8.641207   0.000000
   20        9.581389   0.000000
 
  0.4444444E+00  0.3333333E+00  0.0000000E+00  0.1646091E-01
    1       -9.996992   1.000000
    2       -9.882329   1.000000
    3       -2.172620   1.000000
    4       -2.095594   1.000000
    5       -0.151495   1.000000
    6       -0.141063   1.000000
    7       -0.070605   1.000000
    8        0.207142   1.000000
    9        1.755967   1.000000
   10        1.762549   1.000000
   11        2.010981   1.000000
   12        2.118031   1.000000
   13        3.044074   0.999609
   14        3.252478   0.995613
   15        3.737834   0.045912
   16        3.814105  -0.050757
   17        4.729094   0.000000
   18        4.766686   0.000000
   19        8.593932   0.000000
   20        8.942846   0.000000
 
  0.4444444E+00  0.4444444E+00  0.0000000E+00  0.8230453E-02
    1       -9.867837   1.000000
    2       -9.827076   1.000000
    3       -2.316381   1.000000
    4       -2.288492   1.000000
    5       -0.109497   1.000000
    6       -0.101915   1.000000
    7        0.274559   1.000000
    8        0.397751   1.000000
    9        1.766116   1.000000
   10        1.769079   1.000000
   11        1.777329   1.000000
   12        1.867222   1.000000
   13        3.093352   0.998924
   14        3.319700   1.006754
   15        3.366481   1.025533
   16        3.518267   0.974132
   17        4.691987   0.000000
   18        4.705429   0.000000
   19        8.421950   0.000000
   20        8.593808   0.000000
 
  0.0000000E+00  0.0000000E+00  0.1666667E+00  0.4115226E-02
    1      -11.118543   1.000000
    2      -10.087240   1.000000
    3       -2.168317   1.000000
    4       -0.987925   1.000000
    5       -0.511827   1.000000
    6       -0.511827   1.000000
    7        0.410371   1.000000
    8        0.410371   1.000000
    9        0.896283   1.000000
   10        2.972251   0.999934
   11        2.991632   0.999890
   12        3.712873   0.122700
   13        3.870607  -0.038479
   14        3.870607  -0.038479
   15        4.418342   0.000001
   16        4.520115   0.000000
   17        6.024978   0.000000
   18        6.024978   0.000000
   19        7.089221   0.000000
   20        8.708086   0.000000
 
  0.1111111E+00  0.0000000E+00  0.1666667E+00  0.1646091E-01
    1      -11.049981   1.000000
    2      -10.070882   1.000000
    3       -2.077402   1.000000
    4       -0.968873   1.000000
    5       -0.636587   1.000000
    6       -0.488904   1.000000
    7        0.174623   1.000000
    8        0.382025   1.000000
    9        0.977008   1.000000
   10        2.938151   0.999975
   11        2.985847   0.999905
   12        3.486809   1.027616
   13        3.625607   0.534656
   14        3.758326   0.000774
   15        4.572126   0.000000
   16        4.630011   0.000000
   17        5.678265   0.000000
   18        6.000121   0.000000
   19        7.492455   0.000000
   20        8.958448   0.000000
 
  0.2222222E+00  0.0000000E+00  0.1666667E+00  0.1646091E-01
    1      -10.859570   1.000000
    2      -10.039130   1.000000
    3       -1.852500   1.000000
    4       -1.147735   1.000000
    5       -0.797724   1.000000
    6       -0.420092   1.000000
    7       -0.256135   1.000000
    8        0.298119   1.000000
    9        1.208398   1.000000
   10        2.702328   1.000000
   11        2.925350   0.999983
   12        3.217233   0.995147
   13        3.376930   1.030536
   14        3.455653   1.049452
   15        4.648173   0.000000
   16        4.713219   0.000000
   17        5.274109   0.000000
   18        5.915631   0.000000
   19        8.074235   0.000000
   20        9.312339   0.000000
 
  0.3333333E+00  0.0000000E+00  0.1666667E+00  0.1646091E-01
    1      -10.593391   1.000000
    2      -10.039110   1.000000
    3       -1.771321   1.000000
    4       -1.522485   1.000000
    5       -0.916356   1.000000
    6       -0.308023   1.000000
    7       -0.306136   1.000000
    8        0.166821   1.000000
    9        1.570070   1.000000
   10        2.459013   1.000000
   11        2.813309   1.000000
   12        3.026958   0.999736
   13        3.036596   0.999670
   14        3.053318   0.999520
   15        4.571568   0.000000
   16        4.936889   0.000000
   17        4.968209   0.000000
   18        5.752121   0.000000
   19        8.654010   0.000000
   20        9.612697   0.000000
 
  0.4444444E+00  0.0000000E+00  0.1666667E+00  0.1646091E-01
    1      -10.323710   1.000000
    2      -10.126420   1.000000
    3       -1.916875   1.000000
    4       -1.848913   1.000000
    5       -0.617413   1.000000
    6       -0.340878   1.000000
    7       -0.160456   1.000000
    8        0.005676   1.000000
    9        2.026174   1.000000
   10        2.427369   1.000000
   11        2.530464   1.000000
   12        2.622907   1.000000
   13        2.816480   1.000000
   14        2.871368   0.999997
   15        4.595942   0.000000
   16        4.730870   0.000000
   17        5.218481   0.000000
   18        5.508998   0.000000
   19        9.300959   0.000000
   20        9.757142   0.000000
 
  0.1111111E+00  0.1111111E+00  0.1666667E+00  0.1646091E-01
    1      -10.982734   1.000000
    2      -10.053295   1.000000
    3       -1.987403   1.000000
    4       -0.977424   1.000000
    5       -0.705375   1.000000
    6       -0.463953   1.000000
    7       -0.014442   1.000000
    8        0.329236   1.000000
    9        1.042109   1.000000
   10        2.957790   0.999956
   11        2.960677   0.999952
   12        3.193003   0.995753
   13        3.552384   0.873987
   14        3.623301   0.546811
   15        4.599505   0.000000
   16        4.727716   0.000000
   17        5.587178   0.000000
   18        5.715202   0.000000
   19        7.909772   0.000000
   20        9.341922   0.000000
 
  0.2222222E+00  0.1111111E+00  0.1666667E+00  0.3292181E-01
    1      -10.796374   1.000000
    2      -10.017731   1.000000
    3       -1.772454   1.000000
    4       -1.200210   1.000000
    5       -0.762263   1.000000
    6       -0.452098   1.000000
    7       -0.343199   1.000000
    8        0.254285   1.000000
    9        1.242782   1.000000
   10        2.650591   1.000000
   11        2.888728   0.999995
   12        3.023613   0.999756
   13        3.340097   1.013934
   14        3.378824   1.031448
   15        4.613515   0.000000
   16        4.731693   0.000000
   17        5.204952   0.000000
   18        5.584197   0.000000
   19        8.492990   0.000000
   20        9.871689   0.000000
 
  0.3333333E+00  0.1111111E+00  0.1666667E+00  0.3292181E-01
    1      -10.536958   1.000000
    2      -10.011070   1.000000
    3       -1.762673   1.000000
    4       -1.509963   1.000000
    5       -0.916353   1.000000
    6       -0.370706   1.000000
    7       -0.257928   1.000000
    8        0.147451   1.000000
    9        1.564414   1.000000
   10        2.326305   1.000000
   11        2.765295   1.000000
   12        2.863175   0.999998
   13        3.046532   0.999587
   14        3.146913   0.997432
   15        4.485870   0.000000
   16        4.663504   0.000000
   17        5.066604   0.000000
   18        5.432905   0.000000
   19        8.958122   0.000000
   20       10.227968   0.000000
 
  0.4444444E+00  0.1111111E+00  0.1666667E+00  0.3292181E-01
    1      -10.276378   1.000000
    2      -10.089231   1.000000
    3       -1.924706   1.000000
    4       -1.846752   1.000000
    5       -0.590895   1.000000
    6       -0.348190   1.000000
    7       -0.137120   1.000000
    8        0.001139   1.000000
    9        1.932916   1.000000
   10        2.163720   1.000000
   11        2.638302   1.000000
   12        2.656181   1.000000
   13        2.831523   0.999999
   14        2.905886   0.999991
   15        4.446626   0.000000
   16        4.520987   0.000000
   17        5.134358   0.000000
   18        5.276902   0.000000
   19        9.475889   0.000000
   20       10.123084   0.000000
 
  0.2222222E+00  0.2222222E+00  0.1666667E+00  0.1646091E-01
    1      -10.622237   1.000000
    2       -9.970351   1.000000
    3       -1.670906   1.000000
    4       -1.259816   1.000000
    5       -0.935198   1.000000
    6       -0.513895   1.000000
    7       -0.325884   1.000000
    8        0.204476   1.000000
    9        1.364974   1.000000
   10        2.394075   1.000000
   11        2.713946   1.000000
   12        2.780780   1.000000
   13        3.224166   0.995076
   14        3.294559   1.000477
   15        4.641353   0.000000
   16        4.656528   0.000000
   17        4.830292   0.000000
   18        5.266926   0.000000
   19        8.966281   0.000000
   20       10.483673   0.000000
 
  0.3333333E+00  0.2222222E+00  0.1666667E+00  0.3292181E-01
    1      -10.383281   1.000000
    2       -9.943373   1.000000
    3       -1.854639   1.000000
    4       -1.504193   1.000000
    5       -0.916109   1.000000
    6       -0.333990   1.000000
    7       -0.232054   1.000000
    8        0.162121   1.000000
    9        1.580282   1.000000
   10        2.082083   1.000000
   11        2.501353   1.000000
   12        2.606627   1.000000
   13        3.050901   0.999545
   14        3.247461   0.995397
   15        4.333927   0.000020
   16        4.386211   0.000004
   17        4.855010   0.000000
   18        5.082768   0.000000
   19        9.027293   0.000000
   20       10.037876   0.000000
 
  0.4444444E+00  0.2222222E+00  0.1666667E+00  0.3292181E-01
    1      -10.150250   1.000000
    2       -9.993788   1.000000
    3       -1.999655   1.000000
    4       -1.892756   1.000000
    5       -0.519260   1.000000
    6       -0.317167   1.000000
    7       -0.072639   1.000000
    8        0.069544   1.000000
    9        1.795635   1.000000
   10        1.911117   1.000000
   11        2.401415   1.000000
   12        2.451434   1.000000
   13        2.958513   0.999955
   14        3.104071   0.998693
   15        4.092895   0.003472
   16        4.143528   0.001736
   17        4.943346   0.000000
   18        5.003875   0.000000
   19        9.110185   0.000000
   20        9.472504   0.000000
 
  0.3333333E+00  0.3333333E+00  0.1666667E+00  0.1646091E-01
    1      -10.178537   1.000000
    2       -9.881989   1.000000
    3       -2.042692   1.000000
    4       -1.767709   1.000000
    5       -0.685804   1.000000
    6       -0.229891   1.000000
    7       -0.117137   1.000000
    8        0.226217   1.000000
    9        1.654381   1.000000
   10        1.890974   1.000000
   11        2.157238   1.000000
   12        2.361567   1.000000
   13        3.017389   0.999790
   14        3.310322   1.004080
   15        4.019445   0.004690
   16        4.063613   0.004485
   17        4.741309   0.000000
   18        4.911527   0.000000
   19        8.722648   0.000000
   20        9.568900   0.000000
 
  0.4444444E+00  0.3333333E+00  0.1666667E+00  0.3292181E-01
    1       -9.991416   1.000000
    2       -9.886024   1.000000
    3       -2.157106   1.000000
    4       -2.064153   1.000000
    5       -0.378181   1.000000
    6       -0.237066   1.000000
    7        0.087403   1.000000
    8        0.236557   1.000000
    9        1.731395   1.000000
   10        1.793329   1.000000
   11        2.038514   1.000000
   12        2.140224   1.000000
   13        3.040741   0.999637
   14        3.249934   0.995496
   15        3.719416   0.100271
   16        3.766997  -0.013633
   17        4.777618   0.000000
   18        4.833328   0.000000
   19        8.675406   0.000000
   20        9.012493   0.000000
 
  0.4444444E+00  0.4444444E+00  0.1666667E+00  0.1646091E-01
    1       -9.865653   1.000000
    2       -9.828211   1.000000
    3       -2.280515   1.000000
    4       -2.246210   1.000000
    5       -0.237380   1.000000
    6       -0.194013   1.000000
    7        0.301755   1.000000
    8        0.378093   1.000000
    9        1.746555   1.000000
   10        1.796186   1.000000
   11        1.807260   1.000000
   12        1.897200   1.000000
   13        3.071011   0.999304
   14        3.281339   0.998269
   15        3.366152   1.025377
   16        3.490313   1.023371
   17        4.731152   0.000000
   18        4.751344   0.000000
   19        8.615255   0.000000
   20        8.807187   0.000000
 
  0.0000000E+00  0.0000000E+00  0.3333333E+00  0.4115226E-02
    1      -11.035985   1.000000
    2      -10.200479   1.000000
    3       -1.909789   1.000000
    4       -1.212926   1.000000
    5       -0.554810   1.000000
    6       -0.554810   1.000000
    7        0.478225   1.000000
    8        0.478225   1.000000
    9        0.897396   1.000000
   10        2.991925   0.999889
   11        3.111322   0.998518
   12        3.713507   0.120456
   13        3.905028  -0.022183
   14        3.905028  -0.022183
   15        4.033634   0.004930
   16        4.522152   0.000000
   17        5.857724   0.000000
   18        5.857724   0.000000
   19        7.902862   0.000000
   20        8.715934   0.000000
 
  0.1111111E+00  0.0000000E+00  0.3333333E+00  0.1646091E-01
    1      -10.970181   1.000000
    2      -10.177639   1.000000
    3       -1.853593   1.000000
    4       -1.216674   1.000000
    5       -0.640418   1.000000
    6       -0.529358   1.000000
    7        0.259890   1.000000
    8        0.443452   1.000000
    9        0.975980   1.000000
   10        2.955059   0.999959
   11        3.078650   0.999189
   12        3.484353   1.030355
   13        3.625028   0.537710
   14        3.778653  -0.028904
   15        4.331648   0.000021
   16        4.594540   0.000000
   17        5.620188   0.000000
   18        5.845556   0.000000
   19        8.149921   0.000000
   20        8.998173   0.000000
 
  0.2222222E+00  0.0000000E+00  0.3333333E+00  0.1646091E-01
    1      -10.788941   1.000000
    2      -10.126266   1.000000
    3       -1.774752   1.000000
    4       -1.384280   1.000000
    5       -0.689635   1.000000
    6       -0.453380   1.000000
    7       -0.148471   1.000000
    8        0.343728   1.000000
    9        1.205660   1.000000
   10        2.705035   1.000000
   11        2.950817   0.999964
   12        3.232304   0.995079
   13        3.376284   1.030225
   14        3.461531   1.047296
   15        4.546203   0.000000
   16        4.765728   0.000000
   17        5.321929   0.000000
   18        5.799630   0.000000
   19        8.356884   0.000000
   20        9.332135   0.000000
 
  0.3333333E+00  0.0000000E+00  0.3333333E+00  0.1646091E-01
    1      -10.540790   1.000000
    2      -10.094170   1.000000
    3       -1.916759   1.000000
    4       -1.724083   1.000000
    5       -0.580481   1.000000
    6       -0.330419   1.000000
    7       -0.239734   1.000000
    8        0.192425   1.000000
    9        1.565803   1.000000
   10        2.467408   1.000000
   11        2.774076   1.000000
   12        3.025962   0.999742
   13        3.033031   0.999696
   14        3.051651   0.999538
   15        4.701518   0.000000
   16        4.999663   0.000000
   17        5.162669   0.000000
   18        5.694282   0.000000
   19        8.345957   0.000000
   20        9.450927   0.000000
 
  0.4444444E+00  0.0000000E+00  0.3333333E+00  0.1646091E-01
    1      -10.300271   1.000000
    2      -10.141532   1.000000
    3       -2.099187   1.000000
    4       -2.033341   1.000000
    5       -0.336737   1.000000
    6       -0.193307   1.000000
    7       -0.169844   1.000000
    8        0.012300   1.000000
    9        2.021522   1.000000
   10        2.438684   1.000000
   11        2.527105   1.000000
   12        2.611057   1.000000
   13        2.774414   1.000000
   14        2.842740   0.999999
   15        4.846173   0.000000
   16        5.009064   0.000000
   17        5.264905   0.000000
   18        5.511415   0.000000
   19        8.592293   0.000000
   20        9.105002   0.000000
 
  0.1111111E+00  0.1111111E+00  0.3333333E+00  0.1646091E-01
    1      -10.905676   1.000000
    2      -10.154020   1.000000
    3       -1.794914   1.000000
    4       -1.230785   1.000000
    5       -0.673362   1.000000
    6       -0.518474   1.000000
    7        0.064592   1.000000
    8        0.401710   1.000000
    9        1.039923   1.000000
   10        2.973094   0.999933
   11        3.037277   0.999664
   12        3.224265   0.995076
   13        3.550727   0.879877
   14        3.630414   0.509259
   15        4.453648   0.000000
   16        4.628298   0.000000
   17        5.383486   0.000000
   18        5.805014   0.000000
   19        8.467740   0.000000
   20        9.428809   0.000000
 
  0.2222222E+00  0.1111111E+00  0.3333333E+00  0.3292181E-01
    1      -10.728328   1.000000
    2      -10.100125   1.000000
    3       -1.721939   1.000000
    4       -1.382252   1.000000
    5       -0.657793   1.000000
    6       -0.474761   1.000000
    7       -0.313164   1.000000
    8        0.321894   1.000000
    9        1.238285   1.000000
   10        2.686065   1.000000
   11        2.907088   0.999990
   12        3.052214   0.999532
   13        3.339214   1.013587
   14        3.381464   1.032717
   15        4.555937   0.000000
   16        4.725471   0.000000
   17        5.073607   0.000000
   18        5.714884   0.000000
   19        8.747092   0.000000
   20        9.929104   0.000000
 
  0.3333333E+00  0.1111111E+00  0.3333333E+00  0.3292181E-01
    1      -10.486501   1.000000
    2      -10.063383   1.000000
    3       -1.897071   1.000000
    4       -1.671525   1.000000
    5       -0.615060   1.000000
    6       -0.396091   1.000000
    7       -0.269208   1.000000
    8        0.206508   1.000000
    9        1.557229   1.000000
   10        2.368704   1.000000
   11        2.734290   1.000000
   12        2.863868   0.999998
   13        3.044644   0.999604
   14        3.148022   0.997393
   15        4.566779   0.000000
   16        4.703685   0.000000
   17        5.108989   0.000000
   18        5.561871   0.000000
   19        8.703795   0.000000
   20        9.924380   0.000000
 
  0.4444444E+00  0.1111111E+00  0.3333333E+00  0.3292181E-01
    1      -10.254106   1.000000
    2      -10.103781   1.000000
    3       -2.073505   1.000000
    4       -1.993099   1.000000
    5       -0.402927   1.000000
    6       -0.321486   1.000000
    7       -0.095330   1.000000
    8        0.063487   1.000000
    9        1.929225   1.000000
   10        2.192514   1.000000
   11        2.610078   1.000000
   12        2.628309   1.000000
   13        2.825953   0.999999
   14        2.910066   0.999989
   15        4.578901   0.000000
   16        4.626304   0.000000
   17        5.261850   0.000000
   18        5.406799   0.000000
   19        8.889479   0.000000
   20        9.382959   0.000000
 
  0.2222222E+00  0.2222222E+00  0.3333333E+00  0.1646091E-01
    1      -10.562631   1.000000
    2      -10.038281   1.000000
    3       -1.733060   1.000000
    4       -1.303433   1.000000
    5       -0.846153   1.000000
    6       -0.492326   1.000000
    7       -0.415087   1.000000
    8        0.289006   1.000000
    9        1.354208   1.000000
   10        2.485216   1.000000
   11        2.733244   1.000000
   12        2.781404   1.000000
   13        3.222737   0.995086
   14        3.294592   1.000483
   15        4.530540   0.000000
   16        4.593529   0.000000
   17        4.785907   0.000000
   18        5.537202   0.000000
   19        9.081056   0.000000
   20       10.319220   0.000000
 
  0.3333333E+00  0.2222222E+00  0.3333333E+00  0.3292181E-01
    1      -10.339729   1.000000
    2       -9.987155   1.000000
    3       -1.931192   1.000000
    4       -1.529088   1.000000
    5       -0.876272   1.000000
    6       -0.402106   1.000000
    7       -0.232113   1.000000
    8        0.245287   1.000000
    9        1.562404   1.000000
   10        2.164778   1.000000
   11        2.530480   1.000000
   12        2.594140   1.000000
   13        3.050784   0.999546
   14        3.242526   0.995242
   15        4.235561   0.000276
   16        4.385600   0.000004
   17        4.898721   0.000000
   18        5.335127   0.000000
   19        8.981515   0.000000
   20       10.079937   0.000000
 
  0.4444444E+00  0.2222222E+00  0.3333333E+00  0.3292181E-01
    1      -10.131570   1.000000
    2      -10.006465   1.000000
    3       -2.056421   1.000000