Automatically generated mesh
      60
Reciprocal lattice
    0.00000000000000    0.00000000000000    0.00000000000000             1
    0.11111111111111    0.00000000000000    0.00000000000000             4
    0.22222222222222    0.00000000000000    0.00000000000000             4
    0.33333333333334    0.00000000000000    0.00000000000000             4
    0.44444444444444    0.00000000000000    0.00000000000000             4
    0.11111111111111    0.11111111111111    0.00000000000000             4
    0.22222222222222    0.11111111111111    0.00000000000000             8
    0.33333333333334    0.11111111111111    0.00000000000000             8
    0.44444444444444    0.11111111111111    0.00000000000000             8
    0.22222222222222    0.22222222222222    0.00000000000000             4
    0.33333333333334    0.22222222222222    0.00000000000000             8
    0.44444444444444    0.22222222222222    0.00000000000000             8
    0.33333333333334    0.33333333333334    0.00000000000000             4
    0.44444444444444    0.33333333333334    0.00000000000000             8
    0.44444444444444    0.44444444444444    0.00000000000000             4
    0.00000000000000    0.00000000000000    0.16666666666667             2
    0.11111111111111    0.00000000000000    0.16666666666667             8
    0.22222222222222    0.00000000000000    0.16666666666667             8
    0.33333333333334    0.00000000000000    0.16666666666667             8
    0.44444444444444    0.00000000000000    0.16666666666667             8
    0.11111111111111    0.11111111111111    0.16666666666667             8
    0.22222222222222    0.11111111111111    0.16666666666667            16
    0.33333333333334    0.11111111111111    0.16666666666667            16
    0.44444444444444    0.11111111111111    0.16666666666667            16
    0.22222222222222    0.22222222222222    0.16666666666667             8
    0.33333333333334    0.22222222222222    0.16666666666667            16
    0.44444444444444    0.22222222222222    0.16666666666667            16
    0.33333333333334    0.33333333333334    0.16666666666667             8
    0.44444444444444    0.33333333333334    0.16666666666667            16
    0.44444444444444    0.44444444444444    0.16666666666667             8
    0.00000000000000    0.00000000000000    0.33333333333333             2
    0.11111111111111    0.00000000000000    0.33333333333333             8
    0.22222222222222    0.00000000000000    0.33333333333333             8
    0.33333333333334    0.00000000000000    0.33333333333333             8
    0.44444444444444    0.00000000000000    0.33333333333333             8
    0.11111111111111    0.11111111111111    0.33333333333333             8
    0.22222222222222    0.11111111111111    0.33333333333333            16
    0.33333333333334    0.11111111111111    0.33333333333333            16
    0.44444444444444    0.11111111111111    0.33333333333333            16
    0.22222222222222    0.22222222222222    0.33333333333333             8
    0.33333333333334    0.22222222222222    0.33333333333333            16
    0.44444444444444    0.22222222222222    0.33333333333333            16
    0.33333333333334    0.33333333333334    0.33333333333333             8
    0.44444444444444    0.33333333333334    0.33333333333333            16
    0.44444444444444    0.44444444444444    0.33333333333333             8
    0.00000000000000    0.00000000000000    0.50000000000000             1
    0.11111111111111    0.00000000000000    0.50000000000000             4
    0.22222222222222    0.00000000000000    0.50000000000000             4
    0.33333333333334    0.00000000000000    0.50000000000000             4
    0.44444444444444    0.00000000000000    0.50000000000000             4
    0.11111111111111    0.11111111111111    0.50000000000000             4
    0.22222222222222    0.11111111111111    0.50000000000000             8
    0.33333333333334    0.11111111111111    0.50000000000000             8
    0.44444444444444    0.11111111111111    0.50000000000000             8
    0.22222222222222    0.22222222222222    0.50000000000000             4
    0.33333333333334    0.22222222222222    0.50000000000000             8
    0.44444444444444    0.22222222222222    0.50000000000000             8
    0.33333333333334    0.33333333333334    0.50000000000000             4
    0.44444444444444    0.33333333333334    0.50000000000000             8
    0.44444444444444    0.44444444444444    0.50000000000000             4
Tetrahedra
       723    0.00034293552812
         4         1         2         6        16
         4         2         6        16        17
         4         6        16        17        21
         4         2         3         7        17
         4         2         6         7        17
         4         6         7        17        21
         4         3         7        17        18
         4         7        17        18        22
         4         7        17        21        22
         4         3         4         8        18
         4         3         7         8        18
         4         7         8        18        22
         4         4         8        18        19
         4         8        18        19        23
         4         8        18        22        23
         4         4         5         9        19
         4         4         8         9        19
         4         8         9        19        23
         4         5         9        19        20
         4         9        19        20        24
         4         9        19        23        24
         4         5         5         9        20
         4         5         9         9        20
         4         9         9        20        24
         4         5         9        20        20
         4         9        20        20        24
         4         9        20        24        24
         4         4         5         8        20
         4         5         8         9        20
         4         8         9        20        24
         4         4         8        19        20
         4         8        19        20        23
         4         8        20        23        24
         4         3         4         7        19
         4         4         7         8        19
         4         7         8        19        23
         4         3         7        18        19
         4         7        18        19        22
         4         7        19        22        23
         4         2         3         6        18
         4         3         6         7        18
         4         6         7        18        22
         4         2         6        17        18
         4         6        17        18        21
         4         6        18        21        22
         4         1         2         2        17
         4         2         2         6        17
         4         2         6        17        21
         4         1         2        16        17
         4         2        16        17        17
         4         2        17        17        21
         4         6         7        10        21
         4         7        10        21        22
         4        10        21        22        25
         4         7         8        11        22
         4         7        10        11        22
         4        10        11        22        25
         4         8        11        22        23
         4        11        22        23        26
         4        11        22        25        26
         4         8         9        12        23
         4         8        11        12        23
         4        11        12        23        26
         4         9        12        23        24
         4        12        23        24        27
         4        12        23        26        27
         4         9         9        12        24
         4         9        12        12        24
         4        12        12        24        27
         4         9        12        24        24
         4        12        24        24        27
         4        12        24        27        27
         4         8         9        11        24
         4         9        11        12        24
         4        11        12        24        27
         4         8        11        23        24
         4        11        23        24        26
         4        11        24        26        27
         4         7         8        10        23
         4         8        10        11        23
         4        10        11        23        26
         4         7        10        22        23
         4        10        22        23        25
         4        10        23        25        26
         4         6         7         7        22
         4         7         7        10        22
         4         7        10        22        25
         4         6         7        21        22
         4         7        21        22        22
         4         7        22        22        25
         4         2         3         6        21
         4         3         6         7        21
         4         3         7        21        22
         4         2         3        17        21
         4         3        17        18        21
         4         3        18        21        22
         4        10        11        13        25
         4        11        13        25        26
         4        13        25        26        28
         4        11        12        14        26
         4        11        13        14        26
         4        13        14        26        28
         4        12        14        26        27
         4        14        26        27        29
         4        14        26        28        29
         4        12        12        14        27
         4        12        14        14        27
         4        14        14        27        29
         4        12        14        27        27
         4        14        27        27        29
         4        14        27        29        29
         4        11        12        13        27
         4        12        13        14        27
         4        13        14        27        29
         4        11        13        26        27
         4        13        26        27        28
         4        13        27        28        29
         4        10        11        11        26
         4        11        11        13        26
         4        11        13        26        28
         4        10        11        25        26
         4        11        25        26        26
         4        11        26        26        28
         4         7         8        10        25
         4         8        10        11        25
         4         8        11        25        26
         4         7         8        22        25
         4         8        22        23        25
         4         8        23        25        26
         4         3         4         7        22
         4         4         7         8        22
         4         4         8        22        23
         4         3         4        18        22
         4         4        18        19        22
         4         4        19        22        23
         4        13        14        15        28
         4        14        15        28        29
         4        15        28        29        30
         8        14        14        15        29
         4        14        15        15        29
         4        15        15        29        30
         4        14        15        29        29
         4        15        29        29        30
         4        15        29        30        30
         4        13        14        14        29
         4        14        15        29        30
         4        13        14        28        29
         4        14        28        29        29
         8        14        29        29        30
         4        11        12        13        28
         4        12        13        14        28
         4        12        14        28        29
         4        11        12        26        28
         4        12        26        27        28
         4        12        27        28        29
         4         8         9        11        26
         4         9        11        12        26
         4         9        12        26        27
         4         8         9        23        26
         4         9        23        24        26
         4         9        24        26        27
         4         4         5         8        23
         4         5         8         9        23
         4         5         9        23        24
         4         4         5        19        23
         4         5        19        20        23
         4         5        20        23        24
         4        15        15        15        30
         4        15        15        30        30
         4        15        30        30        30
         4        14        14        15        30
         4        14        15        15        30
         4        14        15        30        30
         4        14        14        29        30
         4        14        29        30        30
         4        12        12        14        29
         4        12        14        14        29
         4        12        14        29        29
         4        12        12        27        29
         4        12        27        27        29
         4        12        27        29        29
         4         9         9        12        27
         4         9        12        12        27
         4         9        12        27        27
         4         9         9        24        27
         4         9        24        24        27
         4         9        24        27        27
         4         5         5         9        24
         4         5         9         9        24
         4         5         9        24        24
         4         5         5        20        24
         4         5        20        20        24
         4         5        20        24        24
         4        13        14        15        30
         4        13        14        29        30
         4        13        28        29        30
         4        11        12        14        29
         4        11        13        14        29
         4        11        13        28        29
         4        11        12        27        29
         4        11        26        27        29
         4        11        26        28        29
         4         8         9        12        27
         4         8        11        12        27
         4         8        11        26        27
         4         8         9        24        27
         4         8        23        24        27
         4         8        23        26        27
         4         4         5         9        24
         4         4         8         9        24
         4         4         8        23        24
         4         4         5        20        24
         4         4        19        20        24
         4         4        19        23        24
         4        10        11        13        28
         4        10        11        26        28
         4        10        25        26        28
         4         7         8        11        26
         4         7        10        11        26
         4         7        10        25        26
         4         7         8        23        26
         4         7        22        23        26
         4         7        22        25        26
         4         3         4         8        23
         4         3         7         8        23
         4         3         7        22        23
         4         3         4        19        23
         4         3        18        19        23
         4         3        18        22        23
         4         6         7        10        25
         4         6         7        22        25
         4         6        21        22        25
         4         2         3         7        22
         4         2         6         7        22
         4         2         6        21        22
         4         2         3        18        22
         4         2        17        18        22
         4         2        17        21        22
         4         1         2         6        21
         4         1         2        17        21
         4         1        16        17        21
         4        16        17        21        31
         4        17        21        31        32
         4        21        31        32        36
         4        17        18        22        32
         4        17        21        22        32
         4        21        22        32        36
         4        18        22        32        33
         4        22        32        33        37
         4        22        32        36        37
         4        18        19        23        33
         4        18        22        23        33
         4        22        23        33        37
         4        19        23        33        34
         4        23        33        34        38
         4        23        33        37        38
         4        19        20        24        34
         4        19        23        24        34
         4        23        24        34        38
         4        20        24        34        35
         4        24        34        35        39
         4        24        34        38        39
         4        20        20        24        35
         4        20        24        24        35
         4        24        24        35        39
         4        20        24        35        35
         4        24        35        35        39
         4        24        35        39        39
         4        19        20        23        35
         4        20        23        24        35
         4        23        24        35        39
         4        19        23        34        35
         4        23        34        35        38
         4        23        35        38        39
         4        18        19        22        34
         4        19        22        23        34
         4        22        23        34        38
         4        18        22        33        34
         4        22        33        34        37
         4        22        34        37        38
         4        17        18        21        33
         4        18        21        22        33
         4        21        22        33        37
         4        17        21        32        33
         4        21        32        33        36
         4        21        33        36        37
         4        16        17        17        32
         4        17        17        21        32
         4        17        21        32        36
         4        16        17        31        32
         4        17        31        32        32
         4        17        32        32        36
         4        21        22        25        36
         4        22        25        36        37
         4        25        36        37        40
         4        22        23        26        37
         4        22        25        26        37
         4        25        26        37        40
         4        23        26        37        38
         4        26        37        38        41
         4        26        37        40        41
         4        23        24        27        38
         4        23        26        27        38
         4        26        27        38        41
         4        24        27        38        39
         4        27        38        39        42
         4        27        38        41        42
         4        24        24        27        39
         4        24        27        27        39
         4        27        27        39        42
         4        24        27        39        39
         4        27        39        39        42
         4        27        39        42        42
         4        23        24        26        39
         4        24        26        27        39
         4        26        27        39        42
         4        23        26        38        39
         4        26        38        39        41
         4        26        39        41        42
         4        22        23        25        38
         4        23        25        26        38
         4        25        26        38        41
         4        22        25        37        38
         4        25        37        38        40
         4        25        38        40        41
         4        21        22        22        37
         4        22        22        25        37
         4        22        25        37        40
         4        21        22        36        37
         4        22        36        37        37
         4        22        37        37        40
         4        17        18        21        36
         4        18        21        22        36
         4        18        22        36        37
         4        17        18        32        36
         4        18        32        33        36
         4        18        33        36        37
         4        25        26        28        40
         4        26        28        40        41
         4        28        40        41        43
         4        26        27        29        41
         4        26        28        29        41
         4        28        29        41        43
         4        27        29        41        42
         4        29        41        42        44
         4        29        41        43        44
         4        27        27        29        42
         4        27        29        29        42
         4        29        29        42        44
         4        27        29        42        42
         4        29        42        42        44
         4        29        42        44        44
         4        26        27        28        42
         4        27        28        29        42
         4        28        29        42        44
         4        26        28        41        42
         4        28        41        42        43
         4        28        42        43        44
         4        25        26        26        41
         4        26        26        28        41
         4        26        28        41        43
         4        25        26        40        41
         4        26        40        41        41
         4        26        41        41        43
         4        22        23        25        40
         4        23        25        26        40
         4        23        26        40        41
         4        22        23        37        40
         4        23        37        38        40
         4        23        38        40        41
         4        18        19        22        37
         4        19        22        23        37
         4        19        23        37        38
         4        18        19        33        37
         4        19        33        34        37
         4        19        34        37        38
         4        28        29        30        43
         4        29        30        43        44
         4        30        43        44        45
         8        29        29        30        44
         4        29        30        30        44
         4        30        30        44        45
         4        29        30        44        44
         4        30        44        44        45
         4        30        44        45        45
         4        28        29        29        44
         4        29        30        44        45
         4        28        29        43        44
         4        29        43        44        44
         8        29        44        44        45
         4        26        27        28        43
         4        27        28        29        43
         4        27        29        43        44
         4        26        27        41        43
         4        27        41        42        43
         4        27        42        43        44
         4        23        24        26        41
         4        24        26        27        41
         4        24        27        41        42
         4        23        24        38        41
         4        24        38        39        41
         4        24        39        41        42
         4        19        20        23        38
         4        20        23        24        38
         4        20        24        38        39
         4        19        20        34        38
         4        20        34        35        38
         4        20        35        38        39
         4        30        30        30        45
         4        30        30        45        45
         4        30        45        45        45
         4        29        29        30        45
         4        29        30        30        45
         4        29        30        45        45
         4        29        29        44        45
         4        29        44        45        45
         4        27        27        29        44
         4        27        29        29        44
         4        27        29        44        44
         4        27        27        42        44
         4        27        42        42        44
         4        27        42        44        44
         4        24        24        27        42
         4        24        27        27        42
         4        24        27        42        42
         4        24        24        39        42
         4        24        39        39        42
         4        24        39        42        42
         4        20        20        24        39
         4        20        24        24        39
         4        20        24        39        39
         4        20        20        35        39
         4        20        35        35        39
         4        20        35        39        39
         4        28        29        30        45
         4        28        29        44        45
         4        28        43        44        45
         4        26        27        29        44
         4        26        28        29        44
         4        26        28        43        44
         4        26        27        42        44
         4        26        41        42        44
         4        26        41        43        44
         4        23        24        27        42
         4        23        26        27        42
         4        23        26        41        42
         4        23        24        39        42
         4        23        38        39        42
         4        23        38        41        42
         4        19        20        24        39
         4        19        23        24        39
         4        19        23        38        39
         4        19        20        35        39
         4        19        34        35        39
         4        19        34        38        39
         4        25        26        28        43
         4        25        26        41        43
         4        25        40        41        43
         4        22        23        26        41
         4        22        25        26        41
         4        22        25        40        41
         4        22        23        38        41
         4        22        37        38        41
         4        22        37        40        41
         4        18        19        23        38
         4        18        22        23        38
         4        18        22        37        38
         4        18        19        34        38
         4        18        33        34        38
         4        18        33        37        38
         4        21        22        25        40
         4        21        22        37        40
         4        21        36        37        40
         4        17        18        22        37
         4        17        21        22        37
         4        17        21        36        37
         4        17        18        33        37
         4        17        32        33        37
         4        17        32        36        37
         4        16        17        21        36
         4        16        17        32        36
         4        16        31        32        36
         4        31        32        36        46
         4        32        36        46        47
         4        36        46        47        51
         4        32        33        37        47
         4        32        36        37        47
         4        36        37        47        51
         4        33        37        47        48
         4        37        47        48        52
         4        37        47        51        52
         4        33        34        38        48
         4        33        37        38        48
         4        37        38        48        52
         4        34        38        48        49
         4        38        48        49        53
         4        38        48        52        53
         4        34        35        39        49