 vasp.6.1.1 19Jun20 (build Jul 17 2020 22:48:28) complex                        
  
 executed on             LinuxIFC date 2020.12.07  19:26:41
 running on    4 total cores
 distrk:  each k-point on    4 cores,    1 groups
 distr:  one band on NCORE=   1 cores,    4 groups


--------------------------------------------------------------------------------------------------------


 INCAR:
 POTCAR:    PAW_PBE Fe 06Sep2000                  
 POTCAR:    PAW_PBE Se 06Sep2000                  
 POTCAR:    PAW_PBE Fe 06Sep2000                  
   SHA256 =  cd5a22d9368cc8b5cc476bea79732366149640da08ac9009b0e1b7fc627eea28 Fe/POTCAR             
   COPYR  = (c) Copyright 06Sep2000 Georg Kresse                                                    
   COPYR  = This file is part of the software VASP. Any use, copying, and all other rights are regul
   COPYR  = If you do not have a valid VASP license, you may not use, copy or distribute this file. 
   VRHFIN =Fe:  d7 s1                                                                               
   LEXCH  = PE                                                                                      
   EATOM  =   594.3153 eV,   43.6809 Ry                                                             
                                                                                                    
   TITEL  = PAW_PBE Fe 06Sep2000                                                                    
   LULTRA =        F    use ultrasoft PP ?                                                          
   IUNSCR =        1    unscreen: 0-lin 1-nonlin 2-no                                               
   RPACOR =    2.000    partial core radius                                                         
   POMASS =   55.847; ZVAL   =    8.000    mass and valenz                                          
   RCORE  =    2.300    outmost cutoff radius                                                       
   RWIGS  =    2.460; RWIGS  =    1.302    wigner-seitz radius (au A)                               
   ENMAX  =  267.882; ENMIN  =  200.911 eV                                                          
   RCLOC  =    1.701    cutoff for local pot                                                        
   LCOR   =        T    correct aug charges                                                         
   LPAW   =        T    paw PP                                                                      
   EAUG   =  511.368                                                                                
   DEXC   =    0.000                                                                                
   RMAX   =    2.356    core radius for proj-oper                                                   
   RAUG   =    1.300    factor for augmentation sphere                                              
   RDEP   =    2.442    radius for radial grids                                                     
   RDEPT  =    1.890    core radius for aug-charge                                                  
                                                                                                    
   Atomic configuration                                                                             
    9 entries                                                                                       
     n  l   j            E        occ.                                                              
     1  0  0.50     -6993.8440   2.0000                                                             
     2  0  0.50      -814.6047   2.0000                                                             
     2  1  1.50      -693.3689   6.0000                                                             
     3  0  0.50       -89.4732   2.0000                                                             
     3  1  1.50       -55.6373   6.0000                                                             
     3  2  2.50        -3.8151   7.0000                                                             
     4  0  0.50        -4.2551   1.0000                                                             
     4  1  1.50        -3.4015   0.0000                                                             
     4  3  2.50        -1.3606   0.0000                                                             
   Description                                                                                      
     l       E           TYP  RCUT    TYP  RCUT                                                     
     2     -3.8151135     23  2.300                                                                 
     2     -5.1756961     23  2.300                                                                 
     0     -4.2550963     23  2.300                                                                 
     0      7.2035603     23  2.300                                                                 
     1     -2.7211652     23  2.300                                                                 
     1     18.4316424     23  2.300                                                                 
  local pseudopotential read in
  partial core-charges read in
  partial kinetic energy density read in
  atomic valenz-charges read in
  non local Contribution for L=           2  read in
    real space projection operators read in
  non local Contribution for L=           2  read in
    real space projection operators read in
  non local Contribution for L=           0  read in
    real space projection operators read in
  non local Contribution for L=           0  read in
    real space projection operators read in
  non local Contribution for L=           1  read in
    real space projection operators read in
  non local Contribution for L=           1  read in
    real space projection operators read in
    PAW grid and wavefunctions read in
 
   number of l-projection  operators is LMAX  =           6
   number of lm-projection operators is LMMAX =          18
 
 POTCAR:    PAW_PBE Se 06Sep2000                  
   SHA256 =  eabb916e6b4c819dc065ce039373bc328651da483898f08fb9e49c498452bf12 Se/POTCAR             
   COPYR  = (c) Copyright 06Sep2000 Georg Kresse                                                    
   COPYR  = This file is part of the software VASP. Any use, copying, and all other rights are regul
   COPYR  = If you do not have a valid VASP license, you may not use, copy or distribute this file. 
   VRHFIN =Se: s2p4                                                                                 
   LEXCH  = PE                                                                                      
   EATOM  =   257.1286 eV,   18.8984 Ry                                                             
                                                                                                    
   TITEL  = PAW_PBE Se 06Sep2000                                                                    
   LULTRA =        F    use ultrasoft PP ?                                                          
   IUNSCR =        1    unscreen: 0-lin 1-nonlin 2-no                                               
   RPACOR =    1.900    partial core radius                                                         
   POMASS =   78.960; ZVAL   =    6.000    mass and valenz                                          
   RCORE  =    2.100    outmost cutoff radius                                                       
   RWIGS  =    2.200; RWIGS  =    1.164    wigner-seitz radius (au A)                               
   ENMAX  =  211.555; ENMIN  =  158.666 eV                                                          
   ICORE  =        3    local potential                                                             
   LCOR   =        T    correct aug charges                                                         
   LPAW   =        T    paw PP                                                                      
   EAUG   =  446.842                                                                                
   DEXC   =    0.000                                                                                
   RMAX   =    2.147    core radius for proj-oper                                                   
   RAUG   =    1.300    factor for augmentation sphere                                              
   RDEP   =    2.177    radius for radial grids                                                     
   RDEPT  =    1.928    core radius for aug-charge                                                  
                                                                                                    
   Atomic configuration                                                                             
   10 entries                                                                                       
     n  l   j            E        occ.                                                              
     1  0  0.50    -12503.4787   2.0000                                                             
     2  0  0.50     -1606.9547   2.0000                                                             
     2  1  1.50     -1413.3140   6.0000                                                             
     3  0  0.50      -213.4885   2.0000                                                             
     3  1  1.50      -152.9538   6.0000                                                             
     3  2  2.50       -53.1221  10.0000                                                             
     4  0  0.50       -17.2865   2.0000                                                             
     4  1  0.50        -6.5110   4.0000                                                             
     4  2  2.50        -6.8029   0.0000                                                             
     4  3  2.50        -6.8029   0.0000                                                             
   Description                                                                                      
     l       E           TYP  RCUT    TYP  RCUT                                                     
     0    -17.2865377     23  2.100                                                                 
     0    -15.3094411     23  2.100                                                                 
     1     -6.5110275     23  2.100                                                                 
     1     -0.0695192     23  2.100                                                                 
     2     -6.8029130     23  2.100                                                                 
     3     -1.3605826      7  2.100                                                                 
  local pseudopotential read in
  partial core-charges read in
  partial kinetic energy density read in
  atomic valenz-charges read in
  non local Contribution for L=           0  read in
    real space projection operators read in
  non local Contribution for L=           0  read in
    real space projection operators read in
  non local Contribution for L=           1  read in
    real space projection operators read in
  non local Contribution for L=           1  read in
    real space projection operators read in
  non local Contribution for L=           2  read in
    real space projection operators read in
    PAW grid and wavefunctions read in
 
   number of l-projection  operators is LMAX  =           5
   number of lm-projection operators is LMMAX =          13
 
  PAW_PBE Fe 06Sep2000                  :
 energy of atom  1       EATOM= -594.3153
 kinetic energy error for atom=    0.0346 (will be added to EATOM!!)
  PAW_PBE Se 06Sep2000                  :
 energy of atom  2       EATOM= -257.1286
 kinetic energy error for atom=    0.0046 (will be added to EATOM!!)
 
 
 POSCAR: FeSe
  positions in direct lattice
  No initial velocities read in
 exchange correlation table for  LEXCH =        8
   RHO(1)=    0.500       N(1)  =     2000
   RHO(2)=  100.500       N(2)  =     4000
 


--------------------------------------------------------------------------------------------------------


 ion  position               nearest neighbor table
   1  0.000  0.000  0.000-   3 2.30   4 2.30   3 2.30   4 2.30   2 2.61   2 2.61   2 2.61   2 2.61

   2  0.500  0.500  0.000-   3 2.30   4 2.30   4 2.30   3 2.30   1 2.61   1 2.61   1 2.61   1 2.61

   3  0.000  0.500  0.765-   1 2.30   2 2.30   1 2.30   2 2.30
   4  0.500  0.000  0.235-   1 2.30   2 2.30   2 2.30   1 2.30
 
  LATTYP: Found a simple tetragonal cell.
 ALAT       =     3.6889050000
 C/A-ratio  =     1.5869733701
  
  Lattice vectors:
  
 A1 = (   3.6889050000,   0.0000000000,   0.0000000000)
 A2 = (   0.0000000000,   3.6889050000,   0.0000000000)
 A3 = (   0.0000000000,   0.0000000000,   5.8541940000)


Analysis of symmetry for initial positions (statically):
=====================================================================
 Subroutine PRICEL returns:
 Original cell was already a primitive cell.
 

 Routine SETGRP: Setting up the symmetry group for a 
 simple tetragonal supercell.


 Subroutine GETGRP returns: Found 16 space group operations
 (whereof  8 operations were pure point group operations)
 out of a pool of 16 trial point group operations.


The static configuration has the point symmetry D_2d.
 The point group associated with its full space group is D_4h.


Analysis of symmetry for dynamics (positions and initial velocities):
=====================================================================
 Subroutine PRICEL returns:
 Original cell was already a primitive cell.
 

 Routine SETGRP: Setting up the symmetry group for a 
 simple tetragonal supercell.


 Subroutine GETGRP returns: Found 16 space group operations
 (whereof  8 operations were pure point group operations)
 out of a pool of 16 trial point group operations.


The dynamic configuration has the point symmetry D_2d.
 The point group associated with its full space group is D_4h.


 Subroutine INISYM returns: Found 16 space group operations
 (whereof  8 operations are pure point group operations),
 and found     1 'primitive' translations


----------------------------------------------------------------------------------------

                                     Primitive cell                                     

  volume of cell :      79.6640

  direct lattice vectors                    reciprocal lattice vectors
     3.688905000  0.000000000  0.000000000     0.271083153  0.000000000  0.000000000
     0.000000000  3.688905000  0.000000000     0.000000000  0.271083153  0.000000000
     0.000000000  0.000000000  5.854194000     0.000000000  0.000000000  0.170817708

  length of vectors
     3.688905000  3.688905000  5.854194000     0.271083153  0.271083153  0.170817708

  position of ions in fractional coordinates (direct lattice)
     0.000000000  0.000000000  0.000000000
     0.500000000  0.500000000  0.000000000
     0.000000000  0.500000000  0.764815000
     0.500000000  0.000000000  0.235185000

  ion indices of the primitive-cell ions
   primitive index   ion index
                 1           1
                 2           2
                 3           3
                 4           4

----------------------------------------------------------------------------------------

 
 

Automatic generation of k-mesh.
 generate k-points for:    9    9    6
Space group operators:
 irot       det(A)        alpha          n_x          n_y          n_z        tau_x        tau_y        tau_z
    1     1.000000     0.000000     1.000000     0.000000     0.000000     0.000000     0.000000     0.000000
    2    -1.000000    90.000000     0.000000     0.000000    -1.000000     0.000000     0.000000     0.000000
    3     1.000000   180.000000     0.000000     0.000000     1.000000     0.000000     0.000000     0.000000
    4    -1.000000    90.000000     0.000000     0.000000     1.000000     0.000000     0.000000     0.000000
    5    -1.000000   180.000000     0.000000     1.000000     0.000000     0.000000     0.000000     0.000000
    6     1.000000   180.000000     0.707107     0.707107     0.000000     0.000000     0.000000     0.000000
    7    -1.000000   180.000000     1.000000     0.000000     0.000000     0.000000     0.000000     0.000000
    8     1.000000   180.000000     0.707107    -0.707107     0.000000     0.000000     0.000000     0.000000
    9    -1.000000     0.000000     1.000000     0.000000     0.000000    -0.500000    -0.500000     0.000000
   10     1.000000    90.000000     0.000000     0.000000    -1.000000    -0.500000    -0.500000     0.000000
   11    -1.000000   180.000000     0.000000     0.000000     1.000000    -0.500000    -0.500000     0.000000
   12     1.000000    90.000000     0.000000     0.000000     1.000000    -0.500000    -0.500000     0.000000
   13     1.000000   180.000000     0.000000     1.000000     0.000000    -0.500000    -0.500000     0.000000
   14    -1.000000   180.000000     0.707107     0.707107     0.000000    -0.500000    -0.500000     0.000000
   15     1.000000   180.000000     1.000000     0.000000     0.000000    -0.500000    -0.500000     0.000000
   16    -1.000000   180.000000     0.707107    -0.707107     0.000000    -0.500000    -0.500000     0.000000
 
 Subroutine IBZKPT returns following result:
 ===========================================
 
 Found     60 irreducible k-points:
 
 Following reciprocal coordinates:
            Coordinates               Weight
  0.000000  0.000000  0.000000      1.000000
  0.111111  0.000000  0.000000      4.000000
  0.222222  0.000000  0.000000      4.000000
  0.333333  0.000000  0.000000      4.000000
  0.444444  0.000000  0.000000      4.000000
  0.111111  0.111111  0.000000      4.000000
  0.222222  0.111111  0.000000      8.000000
  0.333333  0.111111  0.000000      8.000000
  0.444444  0.111111  0.000000      8.000000
  0.222222  0.222222  0.000000      4.000000
  0.333333  0.222222  0.000000      8.000000
  0.444444  0.222222  0.000000      8.000000
  0.333333  0.333333  0.000000      4.000000
  0.444444  0.333333  0.000000      8.000000
  0.444444  0.444444  0.000000      4.000000
  0.000000  0.000000  0.166667      2.000000
  0.111111  0.000000  0.166667      8.000000
  0.222222  0.000000  0.166667      8.000000
  0.333333  0.000000  0.166667      8.000000
  0.444444  0.000000  0.166667      8.000000
  0.111111  0.111111  0.166667      8.000000
  0.222222  0.111111  0.166667     16.000000
  0.333333  0.111111  0.166667     16.000000
  0.444444  0.111111  0.166667     16.000000
  0.222222  0.222222  0.166667      8.000000
  0.333333  0.222222  0.166667     16.000000
  0.444444  0.222222  0.166667     16.000000
  0.333333  0.333333  0.166667      8.000000
  0.444444  0.333333  0.166667     16.000000
  0.444444  0.444444  0.166667      8.000000
  0.000000  0.000000  0.333333      2.000000
  0.111111  0.000000  0.333333      8.000000
  0.222222  0.000000  0.333333      8.000000
  0.333333  0.000000  0.333333      8.000000
  0.444444  0.000000  0.333333      8.000000
  0.111111  0.111111  0.333333      8.000000
  0.222222  0.111111  0.333333     16.000000
  0.333333  0.111111  0.333333     16.000000
  0.444444  0.111111  0.333333     16.000000
  0.222222  0.222222  0.333333      8.000000
  0.333333  0.222222  0.333333     16.000000
  0.444444  0.222222  0.333333     16.000000
  0.333333  0.333333  0.333333      8.000000
  0.444444  0.333333  0.333333     16.000000
  0.444444  0.444444  0.333333      8.000000
  0.000000  0.000000  0.500000      1.000000
  0.111111  0.000000  0.500000      4.000000
  0.222222  0.000000  0.500000      4.000000
  0.333333  0.000000  0.500000      4.000000
  0.444444  0.000000  0.500000      4.000000
  0.111111  0.111111  0.500000      4.000000
  0.222222  0.111111  0.500000      8.000000
  0.333333  0.111111  0.500000      8.000000
  0.444444  0.111111  0.500000      8.000000
  0.222222  0.222222  0.500000      4.000000
  0.333333  0.222222  0.500000      8.000000
  0.444444  0.222222  0.500000      8.000000
  0.333333  0.333333  0.500000      4.000000
  0.444444  0.333333  0.500000      8.000000
  0.444444  0.444444  0.500000      4.000000
 
 Following cartesian coordinates:
            Coordinates               Weight
  0.000000  0.000000  0.000000      1.000000
  0.030120  0.000000  0.000000      4.000000
  0.060241  0.000000  0.000000      4.000000
  0.090361  0.000000  0.000000      4.000000
  0.120481  0.000000  0.000000      4.000000
  0.030120  0.030120  0.000000      4.000000
  0.060241  0.030120  0.000000      8.000000
  0.090361  0.030120  0.000000      8.000000
  0.120481  0.030120  0.000000      8.000000
  0.060241  0.060241  0.000000      4.000000
  0.090361  0.060241  0.000000      8.000000
  0.120481  0.060241  0.000000      8.000000
  0.090361  0.090361  0.000000      4.000000
  0.120481  0.090361  0.000000      8.000000
  0.120481  0.120481  0.000000      4.000000
  0.000000  0.000000  0.028470      2.000000
  0.030120  0.000000  0.028470      8.000000
  0.060241  0.000000  0.028470      8.000000
  0.090361  0.000000  0.028470      8.000000
  0.120481  0.000000  0.028470      8.000000
  0.030120  0.030120  0.028470      8.000000
  0.060241  0.030120  0.028470     16.000000
  0.090361  0.030120  0.028470     16.000000
  0.120481  0.030120  0.028470     16.000000
  0.060241  0.060241  0.028470      8.000000
  0.090361  0.060241  0.028470     16.000000
  0.120481  0.060241  0.028470     16.000000
  0.090361  0.090361  0.028470      8.000000
  0.120481  0.090361  0.028470     16.000000
  0.120481  0.120481  0.028470      8.000000
  0.000000  0.000000  0.056939      2.000000
  0.030120  0.000000  0.056939      8.000000
  0.060241  0.000000  0.056939      8.000000
  0.090361  0.000000  0.056939      8.000000
  0.120481  0.000000  0.056939      8.000000
  0.030120  0.030120  0.056939      8.000000
  0.060241  0.030120  0.056939     16.000000
  0.090361  0.030120  0.056939     16.000000
  0.120481  0.030120  0.056939     16.000000
  0.060241  0.060241  0.056939      8.000000
  0.090361  0.060241  0.056939     16.000000
  0.120481  0.060241  0.056939     16.000000
  0.090361  0.090361  0.056939      8.000000
  0.120481  0.090361  0.056939     16.000000
  0.120481  0.120481  0.056939      8.000000
  0.000000  0.000000  0.085409      1.000000
  0.030120  0.000000  0.085409      4.000000
  0.060241  0.000000  0.085409      4.000000
  0.090361  0.000000  0.085409      4.000000
  0.120481  0.000000  0.085409      4.000000
  0.030120  0.030120  0.085409      4.000000
  0.060241  0.030120  0.085409      8.000000
  0.090361  0.030120  0.085409      8.000000
  0.120481  0.030120  0.085409      8.000000
  0.060241  0.060241  0.085409      4.000000
  0.090361  0.060241  0.085409      8.000000
  0.120481  0.060241  0.085409      8.000000
  0.090361  0.090361  0.085409      4.000000
  0.120481  0.090361  0.085409      8.000000
  0.120481  0.120481  0.085409      4.000000
 
 
 Subroutine IBZKPT_HF returns following result:
 ==============================================
 
 Found    486 k-points in 1st BZ
 the following    486 k-points will be used (e.g. in the exchange kernel)
 Following reciprocal coordinates:   # in IRBZ
  0.000000  0.000000  0.000000    0.00205761   1 t-inv F
  0.111111  0.000000  0.000000    0.00205761   2 t-inv F
  0.222222  0.000000  0.000000    0.00205761   3 t-inv F
  0.333333  0.000000  0.000000    0.00205761   4 t-inv F
  0.444444  0.000000  0.000000    0.00205761   5 t-inv F
  0.111111  0.111111  0.000000    0.00205761   6 t-inv F
  0.222222  0.111111  0.000000    0.00205761   7 t-inv F
  0.333333  0.111111  0.000000    0.00205761   8 t-inv F
  0.444444  0.111111  0.000000    0.00205761   9 t-inv F
  0.222222  0.222222  0.000000    0.00205761  10 t-inv F
  0.333333  0.222222  0.000000    0.00205761  11 t-inv F
  0.444444  0.222222  0.000000    0.00205761  12 t-inv F
  0.333333  0.333333  0.000000    0.00205761  13 t-inv F
  0.444444  0.333333  0.000000    0.00205761  14 t-inv F
  0.444444  0.444444  0.000000    0.00205761  15 t-inv F
  0.000000  0.000000  0.166667    0.00205761  16 t-inv F
  0.111111  0.000000  0.166667    0.00205761  17 t-inv F
  0.222222  0.000000  0.166667    0.00205761  18 t-inv F
  0.333333  0.000000  0.166667    0.00205761  19 t-inv F
  0.444444  0.000000  0.166667    0.00205761  20 t-inv F
  0.111111  0.111111  0.166667    0.00205761  21 t-inv F
  0.222222  0.111111  0.166667    0.00205761  22 t-inv F
  0.333333  0.111111  0.166667    0.00205761  23 t-inv F
  0.444444  0.111111  0.166667    0.00205761  24 t-inv F
  0.222222  0.222222  0.166667    0.00205761  25 t-inv F
  0.333333  0.222222  0.166667    0.00205761  26 t-inv F
  0.444444  0.222222  0.166667    0.00205761  27 t-inv F
  0.333333  0.333333  0.166667    0.00205761  28 t-inv F
  0.444444  0.333333  0.166667    0.00205761  29 t-inv F
  0.444444  0.444444  0.166667    0.00205761  30 t-inv F
  0.000000  0.000000  0.333333    0.00205761  31 t-inv F
  0.111111  0.000000  0.333333    0.00205761  32 t-inv F
  0.222222  0.000000  0.333333    0.00205761  33 t-inv F
  0.333333  0.000000  0.333333    0.00205761  34 t-inv F
  0.444444  0.000000  0.333333    0.00205761  35 t-inv F
  0.111111  0.111111  0.333333    0.00205761  36 t-inv F
  0.222222  0.111111  0.333333    0.00205761  37 t-inv F
  0.333333  0.111111  0.333333    0.00205761  38 t-inv F
  0.444444  0.111111  0.333333    0.00205761  39 t-inv F
  0.222222  0.222222  0.333333    0.00205761  40 t-inv F
  0.333333  0.222222  0.333333    0.00205761  41 t-inv F
  0.444444  0.222222  0.333333    0.00205761  42 t-inv F
  0.333333  0.333333  0.333333    0.00205761  43 t-inv F
  0.444444  0.333333  0.333333    0.00205761  44 t-inv F
  0.444444  0.444444  0.333333    0.00205761  45 t-inv F
  0.000000  0.000000  0.500000    0.00205761  46 t-inv F
  0.111111  0.000000  0.500000    0.00205761  47 t-inv F
  0.222222  0.000000  0.500000    0.00205761  48 t-inv F
  0.333333  0.000000  0.500000    0.00205761  49 t-inv F
  0.444444  0.000000  0.500000    0.00205761  50 t-inv F
  0.111111  0.111111  0.500000    0.00205761  51 t-inv F
  0.222222  0.111111  0.500000    0.00205761  52 t-inv F
  0.333333  0.111111  0.500000    0.00205761  53 t-inv F
  0.444444  0.111111  0.500000    0.00205761  54 t-inv F
  0.222222  0.222222  0.500000    0.00205761  55 t-inv F
  0.333333  0.222222  0.500000    0.00205761  56 t-inv F
  0.444444  0.222222  0.500000    0.00205761  57 t-inv F
  0.333333  0.333333  0.500000    0.00205761  58 t-inv F
  0.444444  0.333333  0.500000    0.00205761  59 t-inv F
  0.444444  0.444444  0.500000    0.00205761  60 t-inv F
  0.000000 -0.111111  0.000000    0.00205761   2 t-inv F
 -0.111111  0.000000  0.000000    0.00205761   2 t-inv F
  0.000000  0.111111  0.000000    0.00205761   2 t-inv F
  0.000000 -0.222222  0.000000    0.00205761   3 t-inv F
 -0.222222  0.000000  0.000000    0.00205761   3 t-inv F
  0.000000  0.222222  0.000000    0.00205761   3 t-inv F
  0.000000 -0.333333  0.000000    0.00205761   4 t-inv F
 -0.333333  0.000000  0.000000    0.00205761   4 t-inv F
  0.000000  0.333333  0.000000    0.00205761   4 t-inv F
  0.000000 -0.444444  0.000000    0.00205761   5 t-inv F
 -0.444444  0.000000  0.000000    0.00205761   5 t-inv F
  0.000000  0.444444  0.000000    0.00205761   5 t-inv F
  0.111111 -0.111111  0.000000    0.00205761   6 t-inv F
 -0.111111 -0.111111  0.000000    0.00205761   6 t-inv F
 -0.111111  0.111111  0.000000    0.00205761   6 t-inv F
  0.111111 -0.222222  0.000000    0.00205761   7 t-inv F
 -0.222222 -0.111111  0.000000    0.00205761   7 t-inv F
 -0.111111  0.222222  0.000000    0.00205761   7 t-inv F
  0.222222 -0.111111  0.000000    0.00205761   7 t-inv F
  0.111111  0.222222  0.000000    0.00205761   7 t-inv F
 -0.222222  0.111111  0.000000    0.00205761   7 t-inv F
 -0.111111 -0.222222  0.000000    0.00205761   7 t-inv F
  0.111111 -0.333333  0.000000    0.00205761   8 t-inv F
 -0.333333 -0.111111  0.000000    0.00205761   8 t-inv F
 -0.111111  0.333333  0.000000    0.00205761   8 t-inv F
  0.333333 -0.111111  0.000000    0.00205761   8 t-inv F
  0.111111  0.333333  0.000000    0.00205761   8 t-inv F
 -0.333333  0.111111  0.000000    0.00205761   8 t-inv F
 -0.111111 -0.333333  0.000000    0.00205761   8 t-inv F
  0.111111 -0.444444  0.000000    0.00205761   9 t-inv F
 -0.444444 -0.111111  0.000000    0.00205761   9 t-inv F
 -0.111111  0.444444  0.000000    0.00205761   9 t-inv F
  0.444444 -0.111111  0.000000    0.00205761   9 t-inv F
  0.111111  0.444444  0.000000    0.00205761   9 t-inv F
 -0.444444  0.111111  0.000000    0.00205761   9 t-inv F
 -0.111111 -0.444444  0.000000    0.00205761   9 t-inv F
  0.222222 -0.222222  0.000000    0.00205761  10 t-inv F
 -0.222222 -0.222222  0.000000    0.00205761  10 t-inv F
 -0.222222  0.222222  0.000000    0.00205761  10 t-inv F
  0.222222 -0.333333  0.000000    0.00205761  11 t-inv F
 -0.333333 -0.222222  0.000000    0.00205761  11 t-inv F
 -0.222222  0.333333  0.000000    0.00205761  11 t-inv F
  0.333333 -0.222222  0.000000    0.00205761  11 t-inv F
  0.222222  0.333333  0.000000    0.00205761  11 t-inv F
 -0.333333  0.222222  0.000000    0.00205761  11 t-inv F
 -0.222222 -0.333333  0.000000    0.00205761  11 t-inv F
  0.222222 -0.444444  0.000000    0.00205761  12 t-inv F
 -0.444444 -0.222222  0.000000    0.00205761  12 t-inv F
 -0.222222  0.444444  0.000000    0.00205761  12 t-inv F
  0.444444 -0.222222  0.000000    0.00205761  12 t-inv F
  0.222222  0.444444  0.000000    0.00205761  12 t-inv F
 -0.444444  0.222222  0.000000    0.00205761  12 t-inv F
 -0.222222 -0.444444  0.000000    0.00205761  12 t-inv F
  0.333333 -0.333333  0.000000    0.00205761  13 t-inv F
 -0.333333 -0.333333  0.000000    0.00205761  13 t-inv F
 -0.333333  0.333333  0.000000    0.00205761  13 t-inv F
  0.333333 -0.444444  0.000000    0.00205761  14 t-inv F
 -0.444444 -0.333333  0.000000    0.00205761  14 t-inv F
 -0.333333  0.444444  0.000000    0.00205761  14 t-inv F
  0.444444 -0.333333  0.000000    0.00205761  14 t-inv F
  0.333333  0.444444  0.000000    0.00205761  14 t-inv F
 -0.444444  0.333333  0.000000    0.00205761  14 t-inv F
 -0.333333 -0.444444  0.000000    0.00205761  14 t-inv F
  0.444444 -0.444444  0.000000    0.00205761  15 t-inv F
 -0.444444 -0.444444  0.000000    0.00205761  15 t-inv F
 -0.444444  0.444444  0.000000    0.00205761  15 t-inv F
  0.000000  0.000000 -0.166667    0.00205761  16 t-inv F
  0.000000 -0.111111 -0.166667    0.00205761  17 t-inv F
 -0.111111  0.000000  0.166667    0.00205761  17 t-inv F
  0.000000  0.111111 -0.166667    0.00205761  17 t-inv F
 -0.111111  0.000000 -0.166667    0.00205761  17 t-inv F
  0.000000  0.111111  0.166667    0.00205761  17 t-inv F
  0.111111  0.000000 -0.166667    0.00205761  17 t-inv F
  0.000000 -0.111111  0.166667    0.00205761  17 t-inv F
  0.000000 -0.222222 -0.166667    0.00205761  18 t-inv F
 -0.222222  0.000000  0.166667    0.00205761  18 t-inv F
  0.000000  0.222222 -0.166667    0.00205761  18 t-inv F
 -0.222222  0.000000 -0.166667    0.00205761  18 t-inv F
  0.000000  0.222222  0.166667    0.00205761  18 t-inv F
  0.222222  0.000000 -0.166667    0.00205761  18 t-inv F
  0.000000 -0.222222  0.166667    0.00205761  18 t-inv F
  0.000000 -0.333333 -0.166667    0.00205761  19 t-inv F
 -0.333333  0.000000  0.166667    0.00205761  19 t-inv F
  0.000000  0.333333 -0.166667    0.00205761  19 t-inv F
 -0.333333  0.000000 -0.166667    0.00205761  19 t-inv F
  0.000000  0.333333  0.166667    0.00205761  19 t-inv F
  0.333333  0.000000 -0.166667    0.00205761  19 t-inv F
  0.000000 -0.333333  0.166667    0.00205761  19 t-inv F
  0.000000 -0.444444 -0.166667    0.00205761  20 t-inv F
 -0.444444  0.000000  0.166667    0.00205761  20 t-inv F
  0.000000  0.444444 -0.166667    0.00205761  20 t-inv F
 -0.444444  0.000000 -0.166667    0.00205761  20 t-inv F
  0.000000  0.444444  0.166667    0.00205761  20 t-inv F
  0.444444  0.000000 -0.166667    0.00205761  20 t-inv F
  0.000000 -0.444444  0.166667    0.00205761  20 t-inv F
  0.111111 -0.111111 -0.166667    0.00205761  21 t-inv F
 -0.111111 -0.111111  0.166667    0.00205761  21 t-inv F
 -0.111111  0.111111 -0.166667    0.00205761  21 t-inv F
  0.111111 -0.111111  0.166667    0.00205761  21 t-inv F
  0.111111  0.111111 -0.166667    0.00205761  21 t-inv F
 -0.111111  0.111111  0.166667    0.00205761  21 t-inv F
 -0.111111 -0.111111 -0.166667    0.00205761  21 t-inv F
  0.111111 -0.222222 -0.166667    0.00205761  22 t-inv F
 -0.222222 -0.111111  0.166667    0.00205761  22 t-inv F
 -0.111111  0.222222 -0.166667    0.00205761  22 t-inv F
  0.222222 -0.111111  0.166667    0.00205761  22 t-inv F
  0.111111  0.222222 -0.166667    0.00205761  22 t-inv F
 -0.222222  0.111111  0.166667    0.00205761  22 t-inv F
 -0.111111 -0.222222 -0.166667    0.00205761  22 t-inv F
 -0.222222 -0.111111 -0.166667    0.00205761  22 t-inv F
 -0.111111  0.222222  0.166667    0.00205761  22 t-inv F
  0.222222  0.111111 -0.166667    0.00205761  22 t-inv F
  0.111111 -0.222222  0.166667    0.00205761  22 t-inv F
 -0.222222  0.111111 -0.166667    0.00205761  22 t-inv F
 -0.111111 -0.222222  0.166667    0.00205761  22 t-inv F
  0.222222 -0.111111 -0.166667    0.00205761  22 t-inv F
  0.111111  0.222222  0.166667    0.00205761  22 t-inv F
  0.111111 -0.333333 -0.166667    0.00205761  23 t-inv F
 -0.333333 -0.111111  0.166667    0.00205761  23 t-inv F
 -0.111111  0.333333 -0.166667    0.00205761  23 t-inv F
  0.333333 -0.111111  0.166667    0.00205761  23 t-inv F
  0.111111  0.333333 -0.166667    0.00205761  23 t-inv F
 -0.333333  0.111111  0.166667    0.00205761  23 t-inv F
 -0.111111 -0.333333 -0.166667    0.00205761  23 t-inv F
 -0.333333 -0.111111 -0.166667    0.00205761  23 t-inv F
 -0.111111  0.333333  0.166667    0.00205761  23 t-inv F
  0.333333  0.111111 -0.166667    0.00205761  23 t-inv F
  0.111111 -0.333333  0.166667    0.00205761  23 t-inv F
 -0.333333  0.111111 -0.166667    0.00205761  23 t-inv F
 -0.111111 -0.333333  0.166667    0.00205761  23 t-inv F
  0.333333 -0.111111 -0.166667    0.00205761  23 t-inv F
  0.111111  0.333333  0.166667    0.00205761  23 t-inv F
  0.111111 -0.444444 -0.166667    0.00205761  24 t-inv F
 -0.444444 -0.111111  0.166667    0.00205761  24 t-inv F
 -0.111111  0.444444 -0.166667    0.00205761  24 t-inv F
  0.444444 -0.111111  0.166667    0.00205761  24 t-inv F
  0.111111  0.444444 -0.166667    0.00205761  24 t-inv F
 -0.444444  0.111111  0.166667    0.00205761  24 t-inv F
 -0.111111 -0.444444 -0.166667    0.00205761  24 t-inv F
 -0.444444 -0.111111 -0.166667    0.00205761  24 t-inv F
 -0.111111  0.444444  0.166667    0.00205761  24 t-inv F
  0.444444  0.111111 -0.166667    0.00205761  24 t-inv F
  0.111111 -0.444444  0.166667    0.00205761  24 t-inv F
 -0.444444  0.111111 -0.166667    0.00205761  24 t-inv F
 -0.111111 -0.444444  0.166667    0.00205761  24 t-inv F
  0.444444 -0.111111 -0.166667    0.00205761  24 t-inv F
  0.111111  0.444444  0.166667    0.00205761  24 t-inv F
  0.222222 -0.222222 -0.166667    0.00205761  25 t-inv F
 -0.222222 -0.222222  0.166667    0.00205761  25 t-inv F
 -0.222222  0.222222 -0.166667    0.00205761  25 t-inv F
  0.222222 -0.222222  0.166667    0.00205761  25 t-inv F
  0.222222  0.222222 -0.166667    0.00205761  25 t-inv F
 -0.222222  0.222222  0.166667    0.00205761  25 t-inv F
 -0.222222 -0.222222 -0.166667    0.00205761  25 t-inv F
  0.222222 -0.333333 -0.166667    0.00205761  26 t-inv F
 -0.333333 -0.222222  0.166667    0.00205761  26 t-inv F
 -0.222222  0.333333 -0.166667    0.00205761  26 t-inv F
  0.333333 -0.222222  0.166667    0.00205761  26 t-inv F
  0.222222  0.333333 -0.166667    0.00205761  26 t-inv F
 -0.333333  0.222222  0.166667    0.00205761  26 t-inv F
 -0.222222 -0.333333 -0.166667    0.00205761  26 t-inv F
 -0.333333 -0.222222 -0.166667    0.00205761  26 t-inv F
 -0.222222  0.333333  0.166667    0.00205761  26 t-inv F
  0.333333  0.222222 -0.166667    0.00205761  26 t-inv F
  0.222222 -0.333333  0.166667    0.00205761  26 t-inv F
 -0.333333  0.222222 -0.166667    0.00205761  26 t-inv F
 -0.222222 -0.333333  0.166667    0.00205761  26 t-inv F
  0.333333 -0.222222 -0.166667    0.00205761  26 t-inv F
  0.222222  0.333333  0.166667    0.00205761  26 t-inv F
  0.222222 -0.444444 -0.166667    0.00205761  27 t-inv F
 -0.444444 -0.222222  0.166667    0.00205761  27 t-inv F
 -0.222222  0.444444 -0.166667    0.00205761  27 t-inv F
  0.444444 -0.222222  0.166667    0.00205761  27 t-inv F
  0.222222  0.444444 -0.166667    0.00205761  27 t-inv F
 -0.444444  0.222222  0.166667    0.00205761  27 t-inv F
 -0.222222 -0.444444 -0.166667    0.00205761  27 t-inv F
 -0.444444 -0.222222 -0.166667    0.00205761  27 t-inv F
 -0.222222  0.444444  0.166667    0.00205761  27 t-inv F
  0.444444  0.222222 -0.166667    0.00205761  27 t-inv F
  0.222222 -0.444444  0.166667    0.00205761  27 t-inv F
 -0.444444  0.222222 -0.166667    0.00205761  27 t-inv F
 -0.222222 -0.444444  0.166667    0.00205761  27 t-inv F
  0.444444 -0.222222 -0.166667    0.00205761  27 t-inv F
  0.222222  0.444444  0.166667    0.00205761  27 t-inv F
  0.333333 -0.333333 -0.166667    0.00205761  28 t-inv F
 -0.333333 -0.333333  0.166667    0.00205761  28 t-inv F
 -0.333333  0.333333 -0.166667    0.00205761  28 t-inv F
  0.333333 -0.333333  0.166667    0.00205761  28 t-inv F
  0.333333  0.333333 -0.166667    0.00205761  28 t-inv F
 -0.333333  0.333333  0.166667    0.00205761  28 t-inv F
 -0.333333 -0.333333 -0.166667    0.00205761  28 t-inv F
  0.333333 -0.444444 -0.166667    0.00205761  29 t-inv F
 -0.444444 -0.333333  0.166667    0.00205761  29 t-inv F
 -0.333333  0.444444 -0.166667    0.00205761  29 t-inv F
  0.444444 -0.333333  0.166667    0.00205761  29 t-inv F
  0.333333  0.444444 -0.166667    0.00205761  29 t-inv F
 -0.444444  0.333333  0.166667    0.00205761  29 t-inv F
 -0.333333 -0.444444 -0.166667    0.00205761  29 t-inv F
 -0.444444 -0.333333 -0.166667    0.00205761  29 t-inv F
 -0.333333  0.444444  0.166667    0.00205761  29 t-inv F
  0.444444  0.333333 -0.166667    0.00205761  29 t-inv F
  0.333333 -0.444444  0.166667    0.00205761  29 t-inv F
 -0.444444  0.333333 -0.166667    0.00205761  29 t-inv F
 -0.333333 -0.444444  0.166667    0.00205761  29 t-inv F
  0.444444 -0.333333 -0.166667    0.00205761  29 t-inv F
  0.333333  0.444444  0.166667    0.00205761  29 t-inv F
  0.444444 -0.444444 -0.166667    0.00205761  30 t-inv F
 -0.444444 -0.444444  0.166667    0.00205761  30 t-inv F
 -0.444444  0.444444 -0.166667    0.00205761  30 t-inv F
  0.444444 -0.444444  0.166667    0.00205761  30 t-inv F
  0.444444  0.444444 -0.166667    0.00205761  30 t-inv F
 -0.444444  0.444444  0.166667    0.00205761  30 t-inv F
 -0.444444 -0.444444 -0.166667    0.00205761  30 t-inv F
  0.000000  0.000000 -0.333333    0.00205761  31 t-inv F
  0.000000 -0.111111 -0.333333    0.00205761  32 t-inv F
 -0.111111  0.000000  0.333333    0.00205761  32 t-inv F
  0.000000  0.111111 -0.333333    0.00205761  32 t-inv F
 -0.111111  0.000000 -0.333333    0.00205761  32 t-inv F
  0.000000  0.111111  0.333333    0.00205761  32 t-inv F
  0.111111  0.000000 -0.333333    0.00205761  32 t-inv F
  0.000000 -0.111111  0.333333    0.00205761  32 t-inv F
  0.000000 -0.222222 -0.333333    0.00205761  33 t-inv F
 -0.222222  0.000000  0.333333    0.00205761  33 t-inv F
  0.000000  0.222222 -0.333333    0.00205761  33 t-inv F
 -0.222222  0.000000 -0.333333    0.00205761  33 t-inv F
  0.000000  0.222222  0.333333    0.00205761  33 t-inv F
  0.222222  0.000000 -0.333333    0.00205761  33 t-inv F
  0.000000 -0.222222  0.333333    0.00205761  33 t-inv F
  0.000000 -0.333333 -0.333333    0.00205761  34 t-inv F
 -0.333333  0.000000  0.333333    0.00205761  34 t-inv F
  0.000000  0.333333 -0.333333    0.00205761  34 t-inv F
 -0.333333  0.000000 -0.333333    0.00205761  34 t-inv F
  0.000000  0.333333  0.333333    0.00205761  34 t-inv F
  0.333333  0.000000 -0.333333    0.00205761  34 t-inv F
  0.000000 -0.333333  0.333333    0.00205761  34 t-inv F
  0.000000 -0.444444 -0.333333    0.00205761  35 t-inv F
 -0.444444  0.000000  0.333333    0.00205761  35 t-inv F
  0.000000  0.444444 -0.333333    0.00205761  35 t-inv F
 -0.444444  0.000000 -0.333333    0.00205761  35 t-inv F
  0.000000  0.444444  0.333333    0.00205761  35 t-inv F
  0.444444  0.000000 -0.333333    0.00205761  35 t-inv F
  0.000000 -0.444444  0.333333    0.00205761  35 t-inv F
  0.111111 -0.111111 -0.333333    0.00205761  36 t-inv F
 -0.111111 -0.111111  0.333333    0.00205761  36 t-inv F
 -0.111111  0.111111 -0.333333    0.00205761  36 t-inv F
  0.111111 -0.111111  0.333333    0.00205761  36 t-inv F
  0.111111  0.111111 -0.333333    0.00205761  36 t-inv F
 -0.111111  0.111111  0.333333    0.00205761  36 t-inv F
 -0.111111 -0.111111 -0.333333    0.00205761  36 t-inv F
  0.111111 -0.222222 -0.333333    0.00205761  37 t-inv F
 -0.222222 -0.111111  0.333333    0.00205761  37 t-inv F
 -0.111111  0.222222 -0.333333    0.00205761  37 t-inv F
  0.222222 -0.111111  0.333333    0.00205761  37 t-inv F
  0.111111  0.222222 -0.333333    0.00205761  37 t-inv F
 -0.222222  0.111111  0.333333    0.00205761  37 t-inv F
 -0.111111 -0.222222 -0.333333    0.00205761  37 t-inv F
 -0.222222 -0.111111 -0.333333    0.00205761  37 t-inv F
 -0.111111  0.222222  0.333333    0.00205761  37 t-inv F
  0.222222  0.111111 -0.333333    0.00205761  37 t-inv F
  0.111111 -0.222222  0.333333    0.00205761  37 t-inv F
 -0.222222  0.111111 -0.333333    0.00205761  37 t-inv F
 -0.111111 -0.222222  0.333333    0.00205761  37 t-inv F
  0.222222 -0.111111 -0.333333    0.00205761  37 t-inv F
  0.111111  0.222222  0.333333    0.00205761  37 t-inv F
  0.111111 -0.333333 -0.333333    0.00205761  38 t-inv F
 -0.333333 -0.111111  0.333333    0.00205761  38 t-inv F
 -0.111111  0.333333 -0.333333    0.00205761  38 t-inv F
  0.333333 -0.111111  0.333333    0.00205761  38 t-inv F
  0.111111  0.333333 -0.333333    0.00205761  38 t-inv F
 -0.333333  0.111111  0.333333    0.00205761  38 t-inv F
 -0.111111 -0.333333 -0.333333    0.00205761  38 t-inv F
 -0.333333 -0.111111 -0.333333    0.00205761  38 t-inv F
 -0.111111  0.333333  0.333333    0.00205761  38 t-inv F
  0.333333  0.111111 -0.333333    0.00205761  38 t-inv F
  0.111111 -0.333333  0.333333    0.00205761  38 t-inv F
 -0.333333  0.111111 -0.333333    0.00205761  38 t-inv F
 -0.111111 -0.333333  0.333333    0.00205761  38 t-inv F
  0.333333 -0.111111 -0.333333    0.00205761  38 t-inv F
  0.111111  0.333333  0.333333    0.00205761  38 t-inv F
  0.111111 -0.444444 -0.333333    0.00205761  39 t-inv F
 -0.444444 -0.111111  0.333333    0.00205761  39 t-inv F
 -0.111111  0.444444 -0.333333    0.00205761  39 t-inv F
  0.444444 -0.111111  0.333333    0.00205761  39 t-inv F
  0.111111  0.444444 -0.333333    0.00205761  39 t-inv F
 -0.444444  0.111111  0.333333    0.00205761  39 t-inv F
 -0.111111 -0.444444 -0.333333    0.00205761  39 t-inv F
 -0.444444 -0.111111 -0.333333    0.00205761  39 t-inv F
 -0.111111  0.444444  0.333333    0.00205761  39 t-inv F
  0.444444  0.111111 -0.333333    0.00205761  39 t-inv F
  0.111111 -0.444444  0.333333    0.00205761  39 t-inv F
 -0.444444  0.111111 -0.333333    0.00205761  39 t-inv F
 -0.111111 -0.444444  0.333333    0.00205761  39 t-inv F
  0.444444 -0.111111 -0.333333    0.00205761  39 t-inv F
  0.111111  0.444444  0.333333    0.00205761  39 t-inv F
  0.222222 -0.222222 -0.333333    0.00205761  40 t-inv F
 -0.222222 -0.222222  0.333333    0.00205761  40 t-inv F
 -0.222222  0.222222 -0.333333    0.00205761  40 t-inv F
  0.222222 -0.222222  0.333333    0.00205761  40 t-inv F
  0.222222  0.222222 -0.333333    0.00205761  40 t-inv F
 -0.222222  0.222222  0.333333    0.00205761  40 t-inv F
 -0.222222 -0.222222 -0.333333    0.00205761  40 t-inv F
  0.222222 -0.333333 -0.333333    0.00205761  41 t-inv F
 -0.333333 -0.222222  0.333333    0.00205761  41 t-inv F
 -0.222222  0.333333 -0.333333    0.00205761  41 t-inv F
  0.333333 -0.222222  0.333333    0.00205761  41 t-inv F
  0.222222  0.333333 -0.333333    0.00205761  41 t-inv F
 -0.333333  0.222222  0.333333    0.00205761  41 t-inv F
 -0.222222 -0.333333 -0.333333    0.00205761  41 t-inv F
 -0.333333 -0.222222 -0.333333    0.00205761  41 t-inv F
 -0.222222  0.333333  0.333333    0.00205761  41 t-inv F
  0.333333  0.222222 -0.333333    0.00205761  41 t-inv F
  0.222222 -0.333333  0.333333    0.00205761  41 t-inv F
 -0.333333  0.222222 -0.333333    0.00205761  41 t-inv F
 -0.222222 -0.333333  0.333333    0.00205761  41 t-inv F
  0.333333 -0.222222 -0.333333    0.00205761  41 t-inv F
  0.222222  0.333333  0.333333    0.00205761  41 t-inv F
  0.222222 -0.444444 -0.333333    0.00205761  42 t-inv F
 -0.444444 -0.222222  0.333333    0.00205761  42 t-inv F
 -0.222222  0.444444 -0.333333    0.00205761  42 t-inv F
  0.444444 -0.222222  0.333333    0.00205761  42 t-inv F
  0.222222  0.444444 -0.333333    0.00205761  42 t-inv F
 -0.444444  0.222222  0.333333    0.00205761  42 t-inv F
 -0.222222 -0.444444 -0.333333    0.00205761  42 t-inv F
 -0.444444 -0.222222 -0.333333    0.00205761  42 t-inv F
 -0.222222  0.444444  0.333333    0.00205761  42 t-inv F
  0.444444  0.222222 -0.333333    0.00205761  42 t-inv F
  0.222222 -0.444444  0.333333    0.00205761  42 t-inv F
 -0.444444  0.222222 -0.333333    0.00205761  42 t-inv F
 -0.222222 -0.444444  0.333333    0.00205761  42 t-inv F
  0.444444 -0.222222 -0.333333    0.00205761  42 t-inv F
  0.222222  0.444444  0.333333    0.00205761  42 t-inv F
  0.333333 -0.333333 -0.333333    0.00205761  43 t-inv F
 -0.333333 -0.333333  0.333333    0.00205761  43 t-inv F
 -0.333333  0.333333 -0.333333    0.00205761  43 t-inv F
  0.333333 -0.333333  0.333333    0.00205761  43 t-inv F
  0.333333  0.333333 -0.333333    0.00205761  43 t-inv F
 -0.333333  0.333333  0.333333    0.00205761  43 t-inv F
 -0.333333 -0.333333 -0.333333    0.00205761  43 t-inv F
  0.333333 -0.444444 -0.333333    0.00205761  44 t-inv F
 -0.444444 -0.333333  0.333333    0.00205761  44 t-inv F
 -0.333333  0.444444 -0.333333    0.00205761  44 t-inv F
  0.444444 -0.333333  0.333333    0.00205761  44 t-inv F
  0.333333  0.444444 -0.333333    0.00205761  44 t-inv F
 -0.444444  0.333333  0.333333    0.00205761  44 t-inv F
 -0.333333 -0.444444 -0.333333    0.00205761  44 t-inv F
 -0.444444 -0.333333 -0.333333    0.00205761  44 t-inv F
 -0.333333  0.444444  0.333333    0.00205761  44 t-inv F
  0.444444  0.333333 -0.333333    0.00205761  44 t-inv F
  0.333333 -0.444444  0.333333    0.00205761  44 t-inv F
 -0.444444  0.333333 -0.333333    0.00205761  44 t-inv F
 -0.333333 -0.444444  0.333333    0.00205761  44 t-inv F
  0.444444 -0.333333 -0.333333    0.00205761  44 t-inv F
  0.333333  0.444444  0.333333    0.00205761  44 t-inv F
  0.444444 -0.444444 -0.333333    0.00205761  45 t-inv F
 -0.444444 -0.444444  0.333333    0.00205761  45 t-inv F
 -0.444444  0.444444 -0.333333    0.00205761  45 t-inv F
  0.444444 -0.444444  0.333333    0.00205761  45 t-inv F
  0.444444  0.444444 -0.333333    0.00205761  45 t-inv F
 -0.444444  0.444444  0.333333    0.00205761  45 t-inv F
 -0.444444 -0.444444 -0.333333    0.00205761  45 t-inv F
  0.000000 -0.111111 -0.500000    0.00205761  47 t-inv F
 -0.111111  0.000000  0.500000    0.00205761  47 t-inv F
  0.000000  0.111111 -0.500000    0.00205761  47 t-inv F
  0.000000 -0.222222 -0.500000    0.00205761  48 t-inv F
 -0.222222  0.000000  0.500000    0.00205761  48 t-inv F
  0.000000  0.222222 -0.500000    0.00205761  48 t-inv F
  0.000000 -0.333333 -0.500000    0.00205761  49 t-inv F
 -0.333333  0.000000  0.500000    0.00205761  49 t-inv F
  0.000000  0.333333 -0.500000    0.00205761  49 t-inv F
  0.000000 -0.444444 -0.500000    0.00205761  50 t-inv F
 -0.444444  0.000000  0.500000    0.00205761  50 t-inv F
  0.000000  0.444444 -0.500000    0.00205761  50 t-inv F
  0.111111 -0.111111 -0.500000    0.00205761  51 t-inv F
 -0.111111 -0.111111  0.500000    0.00205761  51 t-inv F
 -0.111111  0.111111 -0.500000    0.00205761  51 t-inv F
  0.111111 -0.222222 -0.500000    0.00205761  52 t-inv F
 -0.222222 -0.111111  0.500000    0.00205761  52 t-inv F
 -0.111111  0.222222 -0.500000    0.00205761  52 t-inv F
  0.222222 -0.111111  0.500000    0.00205761  52 t-inv F
  0.111111  0.222222 -0.500000    0.00205761  52 t-inv F
 -0.222222  0.111111  0.500000    0.00205761  52 t-inv F
 -0.111111 -0.222222 -0.500000    0.00205761  52 t-inv F
  0.111111 -0.333333 -0.500000    0.00205761  53 t-inv F
 -0.333333 -0.111111  0.500000    0.00205761  53 t-inv F
 -0.111111  0.333333 -0.500000    0.00205761  53 t-inv F
  0.333333 -0.111111  0.500000    0.00205761  53 t-inv F
  0.111111  0.333333 -0.500000    0.00205761  53 t-inv F
 -0.333333  0.111111  0.500000    0.00205761  53 t-inv F
 -0.111111 -0.333333 -0.500000    0.00205761  53 t-inv F
  0.111111 -0.444444 -0.500000    0.00205761  54 t-inv F
 -0.444444 -0.111111  0.500000    0.00205761  54 t-inv F
 -0.111111  0.444444 -0.500000    0.00205761  54 t-inv F
  0.444444 -0.111111  0.500000    0.00205761  54 t-inv F
  0.111111  0.444444 -0.500000    0.00205761  54 t-inv F
 -0.444444  0.111111  0.500000    0.00205761  54 t-inv F
 -0.111111 -0.444444 -0.500000    0.00205761  54 t-inv F
  0.222222 -0.222222 -0.500000    0.00205761  55 t-inv F
 -0.222222 -0.222222  0.500000    0.00205761  55 t-inv F
 -0.222222  0.222222 -0.500000    0.00205761  55 t-inv F
  0.222222 -0.333333 -0.500000    0.00205761  56 t-inv F
 -0.333333 -0.222222  0.500000    0.00205761  56 t-inv F
 -0.222222  0.333333 -0.500000    0.00205761  56 t-inv F
  0.333333 -0.222222  0.500000    0.00205761  56 t-inv F
  0.222222  0.333333 -0.500000    0.00205761  56 t-inv F
 -0.333333  0.222222  0.500000    0.00205761  56 t-inv F
 -0.222222 -0.333333 -0.500000    0.00205761  56 t-inv F
  0.222222 -0.444444 -0.500000    0.00205761  57 t-inv F
 -0.444444 -0.222222  0.500000    0.00205761  57 t-inv F
 -0.222222  0.444444 -0.500000    0.00205761  57 t-inv F
  0.444444 -0.222222  0.500000    0.00205761  57 t-inv F
  0.222222  0.444444 -0.500000    0.00205761  57 t-inv F
 -0.444444  0.222222  0.500000    0.00205761  57 t-inv F
 -0.222222 -0.444444 -0.500000    0.00205761  57 t-inv F
  0.333333 -0.333333 -0.500000    0.00205761  58 t-inv F
 -0.333333 -0.333333  0.500000    0.00205761  58 t-inv F
 -0.333333  0.333333 -0.500000    0.00205761  58 t-inv F
  0.333333 -0.444444 -0.500000    0.00205761  59 t-inv F
 -0.444444 -0.333333  0.500000    0.00205761  59 t-inv F
 -0.333333  0.444444 -0.500000    0.00205761  59 t-inv F
  0.444444 -0.333333  0.500000    0.00205761  59 t-inv F
  0.333333  0.444444 -0.500000    0.00205761  59 t-inv F
 -0.444444  0.333333  0.500000    0.00205761  59 t-inv F
 -0.333333 -0.444444 -0.500000    0.00205761  59 t-inv F
  0.444444 -0.444444 -0.500000    0.00205761  60 t-inv F
 -0.444444 -0.444444  0.500000    0.00205761  60 t-inv F
 -0.444444  0.444444 -0.500000    0.00205761  60 t-inv F


--------------------------------------------------------------------------------------------------------




 Dimension of arrays:
   k-points           NKPTS =     60   k-points in BZ     NKDIM =     60   number of bands    NBANDS=     20
   number of dos      NEDOS =    301   number of ions     NIONS =      4
   non local maximal  LDIM  =      6   non local SUM 2l+1 LMDIM =     18
   total plane-waves  NPLWV =   6144
   max r-space proj   IRMAX =      1   max aug-charges    IRDMAX=   3562
   dimension x,y,z NGX =    16 NGY =   16 NGZ =   24
   dimension x,y,z NGXF=    32 NGYF=   32 NGZF=   48
   support grid    NGXF=    32 NGYF=   32 NGZF=   48
   ions per type =               2   2
   NGX,Y,Z   is equivalent  to a cutoff of   7.21,  7.21,  6.82 a.u.
   NGXF,Y,Z  is equivalent  to a cutoff of  14.42, 14.42, 13.63 a.u.

 SYSTEM =  FeSe                                    
 POSCAR =  FeSe                                    

 Startparameter for this run:
   NWRITE =      2    write-flag & timer
   PREC   = normal    normal or accurate (medium, high low for compatibility)
   ISTART =      0    job   : 0-new  1-cont  2-samecut
   ICHARG =      2    charge: 1-file 2-atom 10-const
   ISPIN  =      1    spin polarized calculation?
   LNONCOLLINEAR =      F non collinear calculations
   LSORBIT =      F    spin-orbit coupling
   INIWAV =      1    electr: 0-lowe 1-rand  2-diag
   LASPH  =      T    aspherical Exc in radial PAW
   METAGGA=      F    non-selfconsistent MetaGGA calc.

 Electronic Relaxation 1
   ENCUT  =  267.9 eV  19.69 Ry    4.44 a.u.   4.92  4.92  7.81*2*pi/ulx,y,z
   ENINI  =  267.9     initial cutoff
   ENAUG  =  511.4 eV  augmentation charge cutoff
   NELM   =     60;   NELMIN=  2; NELMDL= -5     # of ELM steps 
   EDIFF  = 0.1E-07   stopping-criterion for ELM
   LREAL  =      F    real-space projection
   NLSPLINE    = F    spline interpolate recip. space projectors
   LCOMPAT=      F    compatible to vasp.4.4
   GGA_COMPAT  = T    GGA compatible to vasp.4.4-vasp.4.6
   LMAXPAW     = -100 max onsite density
   LMAXMIX     =    2 max onsite mixed and CHGCAR
   VOSKOWN=      0    Vosko Wilk Nusair interpolation
   ROPT   =    0.00000   0.00000
 Ionic relaxation
   EDIFFG = 0.1E-06   stopping-criterion for IOM
   NSW    =      0    number of steps for IOM
   NBLOCK =      1;   KBLOCK =      1    inner block; outer block 
   IBRION =     -1    ionic relax: 0-MD 1-quasi-New 2-CG
   NFREE  =      0    steps in history (QN), initial steepest desc. (CG)
   ISIF   =      2    stress and relaxation
   IWAVPR =     10    prediction:  0-non 1-charg 2-wave 3-comb
   ISYM   =      2    0-nonsym 1-usesym 2-fastsym
   LCORR  =      T    Harris-Foulkes like correction to forces

   POTIM  = 0.5000    time-step for ionic-motion
   TEIN   =    0.0    initial temperature
   TEBEG  =    0.0;   TEEND  =   0.0 temperature during run
   SMASS  =  -3.00    Nose mass-parameter (am)
   estimated Nose-frequenzy (Omega)   =  0.10E-29 period in steps = 0.13E+47 mass=  -0.311E-27a.u.
   SCALEE = 1.0000    scale energy and forces
   NPACO  =    256;   APACO  = 16.0  distance and # of slots for P.C.
   PSTRESS=    0.0 pullay stress

  Mass of Ions in am
   POMASS =  55.85 78.96
  Ionic Valenz
   ZVAL   =   8.00  6.00
  Atomic Wigner-Seitz radii
   RWIGS  =  -1.00 -1.00
  virtual crystal weights 
   VCA    =   1.00  1.00
   NELECT =      28.0000    total number of electrons
   NUPDOWN=      -1.0000    fix difference up-down

 DOS related values:
   EMIN   =  10.00;   EMAX   =-10.00  energy-range for DOS
   EFERMI =   0.00
   ISMEAR =     2;   SIGMA  =   0.20  broadening in eV -4-tet -1-fermi 0-gaus

 Electronic relaxation 2 (details)
   IALGO  =     38    algorithm
   LDIAG  =      T    sub-space diagonalisation (order eigenvalues)
   LSUBROT=      F    optimize rotation matrix (better conditioning)
   TURBO    =      0    0=normal 1=particle mesh
   IRESTART =      0    0=no restart 2=restart with 2 vectors
   NREBOOT  =      0    no. of reboots
   NMIN     =      0    reboot dimension
   EREF     =   0.00    reference energy to select bands
   IMIX   =      4    mixing-type and parameters
     AMIX     =   0.40;   BMIX     =  1.00
     AMIX_MAG =   1.60;   BMIX_MAG =  1.00
     AMIN     =   0.10
     WC   =   100.;   INIMIX=   1;  MIXPRE=   1;  MAXMIX= -45

 Intra band minimization:
   WEIMIN = 0.0000     energy-eigenvalue tresh-hold
   EBREAK =  0.13E-09  absolut break condition
   DEPER  =   0.30     relativ break condition  

   TIME   =   0.40     timestep for ELM

  volume/ion in A,a.u.               =      19.92       134.40
  Fermi-wavevector in a.u.,A,eV,Ry     =   1.155332  2.183261 18.160950  1.334792
  Thomas-Fermi vector in A             =   2.291961
 
 Write flags
   LWAVE        =      T    write WAVECAR
   LDOWNSAMPLE  =      F    k-point downsampling of WAVECAR
   LCHARG       =      T    write CHGCAR
   LVTOT        =      F    write LOCPOT, total local potential
   LVHAR        =      F    write LOCPOT, Hartree potential only
   LELF         =      F    write electronic localiz. function (ELF)
   LORBIT       =      0    0 simple, 1 ext, 2 COOP (PROOUT), +10 PAW based schemes


 Dipole corrections
   LMONO  =      F    monopole corrections only (constant potential shift)
   LDIPOL =      F    correct potential (dipole corrections)
   IDIPOL =      0    1-x, 2-y, 3-z, 4-all directions 
   EPSILON=  1.0000000 bulk dielectric constant

 Exchange correlation treatment:
   GGA     =    --    GGA type
   LEXCH   =     8    internal setting for exchange type
   VOSKOWN=      0    Vosko Wilk Nusair interpolation
   LHFCALC =     F    Hartree Fock is set to
   LHFONE  =     F    Hartree Fock one center treatment
   AEXX    =    0.0000 exact exchange contribution

 Linear response parameters
   LEPSILON=     F    determine dielectric tensor
   LRPA    =     F    only Hartree local field effects (RPA)
   LNABLA  =     F    use nabla operator in PAW spheres
   LVEL    =     F    velocity operator in full k-point grid
   LINTERFAST=   F  fast interpolation
   KINTER  =     0    interpolate to denser k-point grid
   CSHIFT  =0.1000    complex shift for real part using Kramers Kronig
   OMEGAMAX=  -1.0    maximum frequency
   DEG_THRESHOLD= 0.2000000E-02 threshold for treating states as degnerate
   RTIME   =   -0.100 relaxation time in fs
  (WPLASMAI=    0.000 imaginary part of plasma frequency in eV, 0.658/RTIME)
   DFIELD  = 0.0000000 0.0000000 0.0000000 field for delta impulse in time
 
 Orbital magnetization related:
   ORBITALMAG=     F  switch on orbital magnetization
   LCHIMAG   =     F  perturbation theory with respect to B field
   DQ        =  0.001000  dq finite difference perturbation B field
   LLRAUG    =     F  two centre corrections for induced B field



--------------------------------------------------------------------------------------------------------


 Static calculation
 charge density and potential will be updated during run
 non-spin polarized calculation
 Variant of blocked Davidson
 Davidson routine will perform the subspace rotation
 perform sub-space diagonalisation
    after iterative eigenvector-optimisation
 modified Broyden-mixing scheme, WC =      100.0
 initial mixing is a Kerker type mixing with AMIX =  0.4000 and BMIX =      1.0000
 Hartree-type preconditioning will be used
 using additional bands            6
 reciprocal scheme for non local part
 use partial core corrections
 calculate Harris-corrections to forces 
   (improved forces if not selfconsistent)
 use gradient corrections 
 use of overlap-Matrix (Vanderbilt PP)
 Methfessel and Paxton  Order N= 2 SIGMA  =   0.20


--------------------------------------------------------------------------------------------------------


  energy-cutoff  :      267.88
  volume of cell :       79.66
      direct lattice vectors                 reciprocal lattice vectors
     3.688905000  0.000000000  0.000000000     0.271083153  0.000000000  0.000000000
     0.000000000  3.688905000  0.000000000     0.000000000  0.271083153  0.000000000
     0.000000000  0.000000000  5.854194000     0.000000000  0.000000000  0.170817708

  length of vectors
     3.688905000  3.688905000  5.854194000     0.271083153  0.271083153  0.170817708


 
 k-points in units of 2pi/SCALE and weight: read from INCAR                         
   0.00000000  0.00000000  0.00000000       0.002
   0.03012035  0.00000000  0.00000000       0.008
   0.06024070  0.00000000  0.00000000       0.008
   0.09036105  0.00000000  0.00000000       0.008
   0.12048140  0.00000000  0.00000000       0.008
   0.03012035  0.03012035  0.00000000       0.008
   0.06024070  0.03012035  0.00000000       0.016
   0.09036105  0.03012035  0.00000000       0.016
   0.12048140  0.03012035  0.00000000       0.016
   0.06024070  0.06024070  0.00000000       0.008
   0.09036105  0.06024070  0.00000000       0.016
   0.12048140  0.06024070  0.00000000       0.016
   0.09036105  0.09036105  0.00000000       0.008
   0.12048140  0.09036105  0.00000000       0.016
   0.12048140  0.12048140  0.00000000       0.008
   0.00000000  0.00000000  0.02846962       0.004
   0.03012035  0.00000000  0.02846962       0.016
   0.06024070  0.00000000  0.02846962       0.016
   0.09036105  0.00000000  0.02846962       0.016
   0.12048140  0.00000000  0.02846962       0.016
   0.03012035  0.03012035  0.02846962       0.016
   0.06024070  0.03012035  0.02846962       0.033
   0.09036105  0.03012035  0.02846962       0.033
   0.12048140  0.03012035  0.02846962       0.033
   0.06024070  0.06024070  0.02846962       0.016
   0.09036105  0.06024070  0.02846962       0.033
   0.12048140  0.06024070  0.02846962       0.033
   0.09036105  0.09036105  0.02846962       0.016
   0.12048140  0.09036105  0.02846962       0.033
   0.12048140  0.12048140  0.02846962       0.016
   0.00000000  0.00000000  0.05693924       0.004
   0.03012035  0.00000000  0.05693924       0.016
   0.06024070  0.00000000  0.05693924       0.016
   0.09036105  0.00000000  0.05693924       0.016
   0.12048140  0.00000000  0.05693924       0.016
   0.03012035  0.03012035  0.05693924       0.016
   0.06024070  0.03012035  0.05693924       0.033
   0.09036105  0.03012035  0.05693924       0.033
   0.12048140  0.03012035  0.05693924       0.033
   0.06024070  0.06024070  0.05693924       0.016
   0.09036105  0.06024070  0.05693924       0.033
   0.12048140  0.06024070  0.05693924       0.033
   0.09036105  0.09036105  0.05693924       0.016
   0.12048140  0.09036105  0.05693924       0.033
   0.12048140  0.12048140  0.05693924       0.016
   0.00000000  0.00000000  0.08540885       0.002
   0.03012035  0.00000000  0.08540885       0.008
   0.06024070  0.00000000  0.08540885       0.008
   0.09036105  0.00000000  0.08540885       0.008
   0.12048140  0.00000000  0.08540885       0.008
   0.03012035  0.03012035  0.08540885       0.008
   0.06024070  0.03012035  0.08540885       0.016
   0.09036105  0.03012035  0.08540885       0.016
   0.12048140  0.03012035  0.08540885       0.016
   0.06024070  0.06024070  0.08540885       0.008
   0.09036105  0.06024070  0.08540885       0.016
   0.12048140  0.06024070  0.08540885       0.016
   0.09036105  0.09036105  0.08540885       0.008
   0.12048140  0.09036105  0.08540885       0.016
   0.12048140  0.12048140  0.08540885       0.008
 
 k-points in reciprocal lattice and weights: read from INCAR                         
   0.00000000  0.00000000  0.00000000       0.002
   0.11111111  0.00000000  0.00000000       0.008
   0.22222222  0.00000000  0.00000000       0.008
   0.33333333  0.00000000  0.00000000       0.008
   0.44444444  0.00000000  0.00000000       0.008
   0.11111111  0.11111111  0.00000000       0.008
   0.22222222  0.11111111  0.00000000       0.016
   0.33333333  0.11111111  0.00000000       0.016
   0.44444444  0.11111111  0.00000000       0.016
   0.22222222  0.22222222  0.00000000       0.008
   0.33333333  0.22222222  0.00000000       0.016
   0.44444444  0.22222222  0.00000000       0.016
   0.33333333  0.33333333  0.00000000       0.008
   0.44444444  0.33333333  0.00000000       0.016
   0.44444444  0.44444444  0.00000000       0.008
   0.00000000  0.00000000  0.16666667       0.004
   0.11111111  0.00000000  0.16666667       0.016
   0.22222222  0.00000000  0.16666667       0.016
   0.33333333  0.00000000  0.16666667       0.016
   0.44444444  0.00000000  0.16666667       0.016
   0.11111111  0.11111111  0.16666667       0.016
   0.22222222  0.11111111  0.16666667       0.033
   0.33333333  0.11111111  0.16666667       0.033
   0.44444444  0.11111111  0.16666667       0.033
   0.22222222  0.22222222  0.16666667       0.016
   0.33333333  0.22222222  0.16666667       0.033
   0.44444444  0.22222222  0.16666667       0.033
   0.33333333  0.33333333  0.16666667       0.016
   0.44444444  0.33333333  0.16666667       0.033
   0.44444444  0.44444444  0.16666667       0.016
   0.00000000  0.00000000  0.33333333       0.004
   0.11111111  0.00000000  0.33333333       0.016
   0.22222222  0.00000000  0.33333333       0.016
   0.33333333  0.00000000  0.33333333       0.016
   0.44444444  0.00000000  0.33333333       0.016
   0.11111111  0.11111111  0.33333333       0.016
   0.22222222  0.11111111  0.33333333       0.033
   0.33333333  0.11111111  0.33333333       0.033
   0.44444444  0.11111111  0.33333333       0.033
   0.22222222  0.22222222  0.33333333       0.016
   0.33333333  0.22222222  0.33333333       0.033
   0.44444444  0.22222222  0.33333333       0.033
   0.33333333  0.33333333  0.33333333       0.016
   0.44444444  0.33333333  0.33333333       0.033
   0.44444444  0.44444444  0.33333333       0.016
   0.00000000  0.00000000  0.50000000       0.002
   0.11111111  0.00000000  0.50000000       0.008
   0.22222222  0.00000000  0.50000000       0.008
   0.33333333  0.00000000  0.50000000       0.008
   0.44444444  0.00000000  0.50000000       0.008
   0.11111111  0.11111111  0.50000000       0.008
   0.22222222  0.11111111  0.50000000       0.016
   0.33333333  0.11111111  0.50000000       0.016
   0.44444444  0.11111111  0.50000000       0.016
   0.22222222  0.22222222  0.50000000       0.008
   0.33333333  0.22222222  0.50000000       0.016
   0.44444444  0.22222222  0.50000000       0.016
   0.33333333  0.33333333  0.50000000       0.008
   0.44444444  0.33333333  0.50000000       0.016
   0.44444444  0.44444444  0.50000000       0.008
 
 position of ions in fractional coordinates (direct lattice) 
   0.00000000  0.00000000  0.00000000
   0.50000000  0.50000000  0.00000000
   0.00000000  0.50000000  0.76481500
   0.50000000  0.00000000  0.23518500
 
 position of ions in cartesian coordinates  (Angst):
   0.00000000  0.00000000  0.00000000
   1.84445250  1.84445250  0.00000000
   0.00000000  1.84445250  4.47737538
   1.84445250  0.00000000  1.37681862
 


--------------------------------------------------------------------------------------------------------


 k-point   1 :   0.0000 0.0000 0.0000  plane waves:     771
 k-point   2 :   0.1111 0.0000 0.0000  plane waves:     782
 k-point   3 :   0.2222 0.0000 0.0000  plane waves:     794
 k-point   4 :   0.3333 0.0000 0.0000  plane waves:     794
 k-point   5 :   0.4444 0.0000 0.0000  plane waves:     790
 k-point   6 :   0.1111 0.1111 0.0000  plane waves:     785
 k-point   7 :   0.2222 0.1111 0.0000  plane waves:     790
 k-point   8 :   0.3333 0.1111 0.0000  plane waves:     793
 k-point   9 :   0.4444 0.1111 0.0000  plane waves:     794
 k-point  10 :   0.2222 0.2222 0.0000  plane waves:     781
 k-point  11 :   0.3333 0.2222 0.0000  plane waves:     791
 k-point  12 :   0.4444 0.2222 0.0000  plane waves:     795
 k-point  13 :   0.3333 0.3333 0.0000  plane waves:     803
 k-point  14 :   0.4444 0.3333 0.0000  plane waves:     800
 k-point  15 :   0.4444 0.4444 0.0000  plane waves:     801
 k-point  16 :   0.0000 0.0000 0.1667  plane waves:     787
 k-point  17 :   0.1111 0.0000 0.1667  plane waves:     781
 k-point  18 :   0.2222 0.0000 0.1667  plane waves:     789
 k-point  19 :   0.3333 0.0000 0.1667  plane waves:     789
 k-point  20 :   0.4444 0.0000 0.1667  plane waves:     787
 k-point  21 :   0.1111 0.1111 0.1667  plane waves:     785
 k-point  22 :   0.2222 0.1111 0.1667  plane waves:     789
 k-point  23 :   0.3333 0.1111 0.1667  plane waves:     794
 k-point  24 :   0.4444 0.1111 0.1667  plane waves:     797
 k-point  25 :   0.2222 0.2222 0.1667  plane waves:     791
 k-point  26 :   0.3333 0.2222 0.1667  plane waves:     796
 k-point  27 :   0.4444 0.2222 0.1667  plane waves:     799
 k-point  28 :   0.3333 0.3333 0.1667  plane waves:     795
 k-point  29 :   0.4444 0.3333 0.1667  plane waves:     796
 k-point  30 :   0.4444 0.4444 0.1667  plane waves:     800
 k-point  31 :   0.0000 0.0000 0.3333  plane waves:     760
 k-point  32 :   0.1111 0.0000 0.3333  plane waves:     773
 k-point  33 :   0.2222 0.0000 0.3333  plane waves:     792
 k-point  34 :   0.3333 0.0000 0.3333  plane waves:     800
 k-point  35 :   0.4444 0.0000 0.3333  plane waves:     801
 k-point  36 :   0.1111 0.1111 0.3333  plane waves:     785
 k-point  37 :   0.2222 0.1111 0.3333  plane waves:     791
 k-point  38 :   0.3333 0.1111 0.3333  plane waves:     797
 k-point  39 :   0.4444 0.1111 0.3333  plane waves:     793
 k-point  40 :   0.2222 0.2222 0.3333  plane waves:     797
 k-point  41 :   0.3333 0.2222 0.3333  plane waves:     798
 k-point  42 :   0.4444 0.2222 0.3333  plane waves:     799
 k-point  43 :   0.3333 0.3333 0.3333  plane waves:     794
 k-point  44 :   0.4444 0.3333 0.3333  plane waves:     796
 k-point  45 :   0.4444 0.4444 0.3333  plane waves:     799
 k-point  46 :   0.0000 0.0000 0.5000  plane waves:     760
 k-point  47 :   0.1111 0.0000 0.5000  plane waves:     776
 k-point  48 :   0.2222 0.0000 0.5000  plane waves:     798
 k-point  49 :   0.3333 0.0000 0.5000  plane waves:     808
 k-point  50 :   0.4444 0.0000 0.5000  plane waves:     798
 k-point  51 :   0.1111 0.1111 0.5000  plane waves:     780
 k-point  52 :   0.2222 0.1111 0.5000  plane waves:     796
 k-point  53 :   0.3333 0.1111 0.5000  plane waves:     798
 k-point  54 :   0.4444 0.1111 0.5000  plane waves:     800
 k-point  55 :   0.2222 0.2222 0.5000  plane waves:     796
 k-point  56 :   0.3333 0.2222 0.5000  plane waves:     800
 k-point  57 :   0.4444 0.2222 0.5000  plane waves:     792
 k-point  58 :   0.3333 0.3333 0.5000  plane waves:     790
 k-point  59 :   0.4444 0.3333 0.5000  plane waves:     792
 k-point  60 :   0.4444 0.4444 0.5000  plane waves:     796

 maximum and minimum number of plane-waves per node :       808      760

 maximum number of plane-waves:       808
 maximum index in each direction: 
   IXMAX=    4   IYMAX=    4   IZMAX=    7
   IXMIN=   -5   IYMIN=   -5   IZMIN=   -8


 serial   3D FFT for wavefunctions
 parallel 3D FFT for charge:
    minimum data exchange during FFTs selected (reduces bandwidth)


 total amount of memory used by VASP MPI-rank0    49670. kBytes
=======================================================================

   base      :      30000. kBytes
   nonl-proj :      14013. kBytes
   fftplans  :        452. kBytes
   grid      :        958. kBytes
   one-center:         62. kBytes
   wavefun   :       4185. kBytes
 
     INWAV:  cpu time    0.0000: real time    0.0004
 Broyden mixing: mesh for mixing (old mesh)
   NGX =  9   NGY =  9   NGZ = 15
  (NGX  = 32   NGY  = 32   NGZ  = 48)
  gives a total of   1215 points

 initial charge density was supplied:
 charge density of overlapping atoms calculated
 number of electron      28.0000000 magnetization 
 keeping initial charge density in first step


--------------------------------------------------------------------------------------------------------


 Maximum index for augmentation-charges          826 (set IRDMAX)


--------------------------------------------------------------------------------------------------------


 First call to EWALD:  gamma=   0.412
 Maximum number of real-space cells 3x 3x 2
 Maximum number of reciprocal cells 2x 2x 4

    FEWALD:  cpu time    0.0000: real time    0.0017


--------------------------------------- Iteration      1(   1)  ---------------------------------------


    POTLOK:  cpu time    0.0120: real time    0.0269
    SETDIJ:  cpu time    0.2720: real time    0.2718
     EDDAV:  cpu time    0.4840: real time    0.4840
       DOS:  cpu time    0.0000: real time    0.0019
    --------------------------------------------
      LOOP:  cpu time    0.7680: real time    0.7846

 eigenvalue-minimisations  :  2408
 total energy-change (2. order) : 0.1509577E+03  (-0.8277646E+03)
 number of electron      28.0000000 magnetization 
 augmentation part       28.0000000 magnetization 

 Free energy of the ion-electron system (eV)
  ---------------------------------------------------
  alpha Z        PSCENC =       101.58501776
  Ewald energy   TEWEN  =     -1146.49921692
  -Hartree energ DENC   =      -689.18116718
  -exchange      EXHF   =         0.00000000
  -V(xc)+E(xc)   XCENC  =         6.78657717
  PAW double counting   =      1530.29262919    -1518.14979277
  entropy T*S    EENTRO =        -0.00095446
  eigenvalues    EBANDS =       163.31499225
  atomic energy  EATOM  =      1702.80957093
  Solvation  Ediel_sol  =         0.00000000
  ---------------------------------------------------
  free energy    TOTEN  =       150.95765596 eV

  energy without entropy =      150.95861042  energy(sigma->0) =      150.95789457


--------------------------------------------------------------------------------------------------------




--------------------------------------- Iteration      1(   2)  ---------------------------------------


     EDDAV:  cpu time    0.5240: real time    0.5234
       DOS:  cpu time    0.0000: real time    0.0022
    --------------------------------------------
      LOOP:  cpu time    0.5240: real time    0.5256

 eigenvalue-minimisations  :  2400
 total energy-change (2. order) :-0.1644555E+03  (-0.1574752E+03)
 number of electron      28.0000000 magnetization 
 augmentation part       28.0000000 magnetization 

 Free energy of the ion-electron system (eV)
  ---------------------------------------------------
  alpha Z        PSCENC =       101.58501776
  Ewald energy   TEWEN  =     -1146.49921692
  -Hartree energ DENC   =      -689.18116718
  -exchange      EXHF   =         0.00000000
  -V(xc)+E(xc)   XCENC  =         6.78657717
  PAW double counting   =      1530.29262919    -1518.14979277
  entropy T*S    EENTRO =        -0.00258198
  eigenvalues    EBANDS =        -1.13892121
  atomic energy  EATOM  =      1702.80957093
  Solvation  Ediel_sol  =         0.00000000
  ---------------------------------------------------
  free energy    TOTEN  =       -13.49788503 eV

  energy without entropy =      -13.49530305  energy(sigma->0) =      -13.49723953


--------------------------------------------------------------------------------------------------------




--------------------------------------- Iteration      1(   3)  ---------------------------------------


     EDDAV:  cpu time    0.5400: real time    0.5400
       DOS:  cpu time    0.0040: real time    0.0022
    --------------------------------------------
      LOOP:  cpu time    0.5440: real time    0.5422

 eigenvalue-minimisations  :  2904
 total energy-change (2. order) :-0.1268994E+02  (-0.1226436E+02)
 number of electron      28.0000000 magnetization 
 augmentation part       28.0000000 magnetization 

 Free energy of the ion-electron system (eV)
  ---------------------------------------------------
  alpha Z        PSCENC =       101.58501776
  Ewald energy   TEWEN  =     -1146.49921692
  -Hartree energ DENC   =      -689.18116718
  -exchange      EXHF   =         0.00000000
  -V(xc)+E(xc)   XCENC  =         6.78657717
  PAW double counting   =      1530.29262919    -1518.14979277
  entropy T*S    EENTRO =         0.00200654
  eigenvalues    EBANDS =       -13.83344904
  atomic energy  EATOM  =      1702.80957093
  Solvation  Ediel_sol  =         0.00000000
  ---------------------------------------------------
  free energy    TOTEN  =       -26.18782434 eV

  energy without entropy =      -26.18983088  energy(sigma->0) =      -26.18832597


--------------------------------------------------------------------------------------------------------




--------------------------------------- Iteration      1(   4)  ---------------------------------------


     EDDAV:  cpu time    0.5200: real time    0.5215
       DOS:  cpu time    0.0040: real time    0.0022
    --------------------------------------------
      LOOP:  cpu time    0.5240: real time    0.5237

 eigenvalue-minimisations  :  2784
 total energy-change (2. order) :-0.3771894E+00  (-0.3759291E+00)
 number of electron      28.0000000 magnetization 
 augmentation part       28.0000000 magnetization 

 Free energy of the ion-electron system (eV)
  ---------------------------------------------------
  alpha Z        PSCENC =       101.58501776
  Ewald energy   TEWEN  =     -1146.49921692
  -Hartree energ DENC   =      -689.18116718
  -exchange      EXHF   =         0.00000000
  -V(xc)+E(xc)   XCENC  =         6.78657717
  PAW double counting   =      1530.29262919    -1518.14979277
  entropy T*S    EENTRO =         0.00199397
  eigenvalues    EBANDS =       -14.21062588
  atomic energy  EATOM  =      1702.80957093
  Solvation  Ediel_sol  =         0.00000000
  ---------------------------------------------------
  free energy    TOTEN  =       -26.56501375 eV

  energy without entropy =      -26.56700772  energy(sigma->0) =      -26.56551224


--------------------------------------------------------------------------------------------------------




--------------------------------------- Iteration      1(   5)  ---------------------------------------


     EDDAV:  cpu time    0.5520: real time    0.5525
       DOS:  cpu time    0.0000: real time    0.0022
    CHARGE:  cpu time    0.0360: real time    0.0370
    MIXING:  cpu time    0.0000: real time    0.0003
    --------------------------------------------
      LOOP:  cpu time    0.5880: real time    0.5921

 eigenvalue-minimisations  :  2984
 total energy-change (2. order) :-0.1085931E-01  (-0.1085554E-01)
 number of electron      27.9999903 magnetization 
 augmentation part        5.0495629 magnetization 

 Broyden mixing:
  rms(total) = 0.16011E+01    rms(broyden)= 0.15996E+01
  rms(prec ) = 0.22358E+01
  weight for this iteration     100.00

 Free energy of the ion-electron system (eV)
  ---------------------------------------------------
  alpha Z        PSCENC =       101.58501776
  Ewald energy   TEWEN  =     -1146.49921692
  -Hartree energ DENC   =      -689.18116718
  -exchange      EXHF   =         0.00000000
  -V(xc)+E(xc)   XCENC  =         6.78657717
  PAW double counting   =      1530.29262919    -1518.14979277
  entropy T*S    EENTRO =         0.00198895
  eigenvalues    EBANDS =       -14.22148017
  atomic energy  EATOM  =      1702.80957093
  Solvation  Ediel_sol  =         0.00000000
  ---------------------------------------------------
  free energy    TOTEN  =       -26.57587305 eV

  energy without entropy =      -26.57786200  energy(sigma->0) =      -26.57637029


--------------------------------------------------------------------------------------------------------




--------------------------------------- Iteration      1(   6)  ---------------------------------------


    POTLOK:  cpu time    0.0080: real time    0.0078
    SETDIJ:  cpu time    0.2440: real time    0.2450
     EDDAV:  cpu time    0.6000: real time    0.5971
       DOS:  cpu time    0.0000: real time    0.0021
    CHARGE:  cpu time    0.0360: real time    0.0359
    MIXING:  cpu time    0.0000: real time    0.0004
    --------------------------------------------
      LOOP:  cpu time    0.8880: real time    0.8882

 eigenvalue-minimisations  :  3284
 total energy-change (2. order) :-0.1219050E+01  (-0.2945456E+01)
 number of electron      27.9999888 magnetization 
 augmentation part        8.1469826 magnetization 

 Broyden mixing:
  rms(total) = 0.15039E+01    rms(broyden)= 0.15034E+01
  rms(prec ) = 0.30522E+01
  weight for this iteration     100.00

 eigenvalues of (default mixing * dielectric matrix)
  average eigenvalue GAMMA=   0.5369
  0.5369

 Free energy of the ion-electron system (eV)
  ---------------------------------------------------
  alpha Z        PSCENC =       101.58501776
  Ewald energy   TEWEN  =     -1146.49921692
  -Hartree energ DENC   =      -655.62624680
  -exchange      EXHF   =         0.00000000
  -V(xc)+E(xc)   XCENC  =         5.59197423
  PAW double counting   =      1776.13292429    -1759.07003022
  entropy T*S    EENTRO =        -0.00551796
  eigenvalues    EBANDS =       -52.71339816
  atomic energy  EATOM  =      1702.80957093
[...]
     14       3.7893     -0.07807
     15       4.2238      0.00072
     16       4.6072      0.00000
     17       5.5449      0.00000
     18       5.7670      0.00000
     19       8.6505      0.00000
     20       8.9282      0.00000

 k-point    48 :       0.2222    0.0000    0.5000
  band No.  band energies     occupation 
      1     -10.7458      2.00000
      2     -10.1776      2.00000
      3      -1.6236      2.00000
      4      -1.6013      2.00000
      5      -0.6440      2.00000
      6      -0.4688      2.00000
      7      -0.0997      2.00000
      8       0.3652      2.00000
      9       1.2048      2.00000
     10       2.7120      2.00000
     11       2.9532      1.99992
     12       3.2416      1.99044
     13       3.3759      2.06005
     14       3.4639      2.09241
     15       4.5689      0.00000
     16       4.7957      0.00000
     17       5.2358      0.00000
     18       5.7369      0.00000
     19       8.9280      0.00000
     20       9.0140      0.00000

 k-point    49 :       0.3333    0.0000    0.5000
  band No.  band energies     occupation 
      1     -10.5088      2.00000
      2     -10.1274      2.00000
      3      -1.9493      2.00000
      4      -1.8274      2.00000
      5      -0.4200      2.00000
      6      -0.3410      2.00000
      7      -0.2361      2.00000
      8       0.2044      2.00000
      9       1.5630      2.00000
     10       2.4775      2.00000
     11       2.7467      2.00000
     12       3.0254      1.99949
     13       3.0319      1.99941
     14       3.0503      1.99910
     15       4.9039      0.00000
     16       5.0361      0.00000
     17       5.1006      0.00000
     18       5.6600      0.00000
     19       8.4400      0.00000
     20       9.0780      0.00000

 k-point    50 :       0.4444    0.0000    0.5000
  band No.  band energies     occupation 
      1     -10.2864      2.00000
      2     -10.1512      2.00000
      3      -2.1696      2.00000
      4      -2.1161      2.00000
      5      -0.1922      2.00000
      6      -0.1740      2.00000
      7      -0.1543      2.00000
      8       0.0158      2.00000
      9       2.0200      2.00000
     10       2.4491      2.00000
     11       2.5259      2.00000
     12       2.5992      2.00000
     13       2.7569      2.00000
     14       2.8285      2.00000
     15       5.0738      0.00000
     16       5.0883      0.00000
     17       5.2915      0.00000
     18       5.5112      0.00000
     19       8.3400      0.00000
     20       8.6893      0.00000

 k-point    51 :       0.1111    0.1111    0.5000
  band No.  band energies     occupation 
      1     -10.8585      2.00000
      2     -10.2128      2.00000
      3      -1.5600      2.00000
      4      -1.4848      2.00000
      5      -0.6672      2.00000
      6      -0.5412      2.00000
      7       0.0997      2.00000
      8       0.4356      2.00000
      9       1.0392      2.00000
     10       2.9809      1.99983
     11       3.0725      1.99857
     12       3.2491      1.99092
     13       3.5501      1.76434
     14       3.6355      0.96462
     15       4.3611      0.00002
     16       4.6491      0.00000
     17       5.2791      0.00000
     18       5.7803      0.00000
     19       8.9920      0.00000
     20       9.3540      0.00000

 k-point    52 :       0.2222    0.1111    0.5000
  band No.  band energies     occupation 
      1     -10.6867      2.00000
      2     -10.1489      2.00000
      3      -1.6435      2.00000
      4      -1.5182      2.00000
      5      -0.6116      2.00000
      6      -0.4811      2.00000
      7      -0.3044      2.00000
      8       0.3536      2.00000
      9       1.2358      2.00000
     10       2.7105      2.00000
     11       2.9066      1.99998
     12       3.0674      1.99871
     13       3.3383      2.02643
     14       3.3825      2.06645
     15       4.5645      0.00000
     16       4.7893      0.00000
     17       4.9219      0.00000
     18       5.7425      0.00000
     19       9.2546      0.00000
     20       9.4794      0.00000

 k-point    53 :       0.3333    0.1111    0.5000
  band No.  band energies     occupation 
      1     -10.4558      2.00000
      2     -10.0950      2.00000
      3      -1.9432      2.00000
      4      -1.7431      2.00000
      5      -0.4253      2.00000
      6      -0.4163      2.00000
      7      -0.3377      2.00000
      8       0.2363      2.00000
      9       1.5537      2.00000
     10       2.3970      2.00000
     11       2.7093      2.00000
     12       2.8639      2.00000
     13       3.0438      1.99922
     14       3.1489      1.99472
     15       4.6533      0.00000
     16       4.7306      0.00000
     17       5.0550      0.00000
     18       5.6524      0.00000
     19       8.7079      0.00000
     20       9.5260      0.00000

 k-point    54 :       0.4444    0.1111    0.5000
  band No.  band energies     occupation 
      1     -10.2409      2.00000
      2     -10.1131      2.00000
      3      -2.1363      2.00000
      4      -2.0587      2.00000
      5      -0.3219      2.00000
      6      -0.3170      2.00000
      7      -0.0792      2.00000
      8       0.1000      2.00000
      9       1.9276      2.00000
     10       2.2093      2.00000
     11       2.5906      2.00000
     12       2.6167      2.00000
     13       2.8233      2.00000
     14       2.9115      1.99998
     15       4.6586      0.00000
     16       4.6649      0.00000
     17       5.3136      0.00000
     18       5.5097      0.00000
     19       8.6744      0.00000
     20       9.0667      0.00000

 k-point    55 :       0.2222    0.2222    0.5000
  band No.  band energies     occupation 
      1     -10.5262      2.00000
      2     -10.0789      2.00000
      3      -1.7603      2.00000
      4      -1.3253      2.00000
      5      -0.7828      2.00000
      6      -0.4830      2.00000
      7      -0.4784      2.00000
      8       0.3268      2.00000
      9       1.3490      2.00000
     10       2.5468      2.00000
     11       2.7440      2.00000
     12       2.7642      2.00000
     13       3.2226      1.99017
     14       3.2951      2.00115
     15       4.4666      0.00000
     16       4.6006      0.00000
     17       4.7773      0.00000
     18       5.6454      0.00000
     19       9.0934      0.00000
     20      10.2221      0.00000

 k-point    56 :       0.3333    0.2222    0.5000
  band No.  band energies     occupation 
      1     -10.3132      2.00000
      2     -10.0138      2.00000
      3      -1.9679      2.00000
      4      -1.5420      2.00000
      5      -0.8400      2.00000
      6      -0.4514      2.00000
      7      -0.2323      2.00000
      8       0.2826      2.00000
      9       1.5549      2.00000
     10       2.2127      2.00000
     11       2.5479      2.00000
     12       2.5773      2.00000
     13       3.0504      1.99910
     14       3.2409      1.99040
     15       4.1830      0.00171
     16       4.4078      0.00000
     17       4.9118      0.00000
     18       5.4702      0.00000
     19       8.9162      0.00000
     20      10.2551      0.00000

 k-point    57 :       0.4444    0.2222    0.5000
  band No.  band energies     occupation 
      1     -10.1205      2.00000
      2     -10.0146      2.00000
      3      -2.0847      2.00000
      4      -1.9464      2.00000
      5      -0.5872      2.00000
      6      -0.4604      2.00000
      7       0.0382      2.00000
      8       0.2055      2.00000
      9       1.7835      2.00000
     10       1.9701      2.00000
     11       2.4351      2.00000
     12       2.4509      2.00000
     13       2.9621      1.99990
     14       3.0991      1.99761
     15       4.0715      0.00848
     16       4.1431      0.00349
     17       5.1014      0.00000
     18       5.2837      0.00000
     19       9.1975      0.00000
     20       9.7695      0.00000

 k-point    58 :       0.3333    0.3333    0.5000
  band No.  band energies     occupation 
      1     -10.1286      2.00000
      2      -9.9288      2.00000
      3      -2.0592      2.00000
      4      -1.6164      2.00000
      5      -0.9473      2.00000
      6      -0.4586      2.00000
      7      -0.0403      2.00000
      8       0.3108      2.00000
      9       1.6141      2.00000
     10       2.0320      2.00000
     11       2.2160      2.00000
     12       2.3754      2.00000
     13       3.0135      1.99962
     14       3.3116      2.00882
     15       3.8176     -0.10255
     16       4.0611      0.00911
     17       4.8205      0.00000
     18       5.2087      0.00000
     19       9.1388      0.00000
     20       9.9667      0.00000

 k-point    59 :       0.4444    0.3333    0.5000
  band No.  band energies     occupation 
      1      -9.9711      2.00000
      2      -9.9006      2.00000
      3      -2.1058      2.00000
      4      -1.9568      2.00000
      5      -0.6784      2.00000
      6      -0.5018      2.00000
      7       0.1731      2.00000
      8       0.2937      2.00000
      9       1.7123      2.00000
     10       1.8399      2.00000
     11       2.1174      2.00000
     12       2.2013      2.00000
     13       3.0265      1.99948
     14       3.2421      1.99046
     15       3.6460      0.85384
     16       3.6753      0.55940
     17       4.8838      0.00000
     18       5.0083      0.00000
     19       9.6400      0.00000
     20       9.9669      0.00000

 k-point    60 :       0.4444    0.4444    0.5000
  band No.  band energies     occupation 
      1      -9.8578      2.00000
      2      -9.8329      2.00000
      3      -2.1559      2.00000
      4      -2.0976      2.00000
      5      -0.5566      2.00000
      6      -0.4800      2.00000
      7       0.2934      2.00000
      8       0.3373      2.00000
      9       1.7393      2.00000
     10       1.8376      2.00000
     11       1.8772      2.00000
     12       1.9827      2.00000
     13       2.9985      1.99974
     14       3.1771      1.99263
     15       3.3673      2.05187
     16       3.4343      2.10263
     17       4.8247      0.00000
     18       4.8627      0.00000
     19       9.8992      0.00000
     20       9.9099      0.00000


--------------------------------------------------------------------------------------------------------


 soft charge-density along one line, spin component           1
         0         1         2         3         4         5         6         7         8         9
 total charge-density along one line
 
 pseudopotential strength for first ion, spin component:           1
 -6.304  -0.000   0.000  -0.000  -0.000  -6.819  -0.000   0.000
 -0.000  -6.225  -0.000  -0.000   0.000  -0.000  -6.743  -0.000
  0.000  -0.000  -6.161  -0.000  -0.000   0.000  -0.000  -6.681
 -0.000  -0.000  -0.000  -6.225   0.000  -0.000  -0.000  -0.000
 -0.000   0.000  -0.000   0.000  -6.294  -0.000   0.000  -0.000
 -6.819  -0.000   0.000  -0.000  -0.000  -7.293  -0.000   0.000
 -0.000  -6.743  -0.000  -0.000   0.000  -0.000  -7.219  -0.000
  0.000  -0.000  -6.681  -0.000  -0.000   0.000  -0.000  -7.158
 -0.000  -0.000  -0.000  -6.743   0.000  -0.000  -0.000  -0.000
 -0.000   0.000  -0.000   0.000  -6.810  -0.000   0.000  -0.000
  0.000   0.000  -0.018  -0.000   0.000   0.000   0.000  -0.018
  0.000   0.000  -0.035  -0.000   0.000   0.000   0.000  -0.034
  0.000  -0.006  -0.000   0.000  -0.000   0.000  -0.006  -0.000
  0.000  -0.000   0.000   0.000   0.006   0.000  -0.000   0.000
 -0.000   0.000  -0.000   0.006  -0.000  -0.000   0.000  -0.000
  0.000  -0.005  -0.000   0.000  -0.000   0.000  -0.005  -0.000
  0.000  -0.000   0.000  -0.000   0.005   0.000  -0.000   0.000
 -0.000   0.000  -0.000   0.005  -0.000  -0.000   0.000  -0.000
 total augmentation occupancy for first ion, spin component:           1
  1.075   0.000   0.000  -0.000   0.000  -0.694   0.000   0.000  -0.000   0.000   0.000   0.000   0.000   0.000   0.000  -0.000
  0.000   2.393   0.000   0.000   0.000   0.000  -1.816  -0.000   0.000  -0.000   0.000   0.000   0.468   0.000  -0.000  -0.065
  0.000   0.000   1.815   0.000  -0.000   0.000  -0.000  -0.684   0.000   0.000   0.384  -0.036   0.000   0.000  -0.000   0.000
 -0.000   0.000   0.000   2.393   0.000  -0.000   0.000   0.000  -1.816  -0.000   0.000   0.000   0.000   0.000  -0.468   0.000
  0.000   0.000  -0.000   0.000   3.103   0.000   0.000   0.000  -0.000  -2.163   0.000   0.000   0.000  -0.343  -0.000   0.000
 -0.694   0.000   0.000  -0.000   0.000   1.591   0.000   0.000   0.000  -0.000   0.000   0.000   0.000  -0.000   0.000   0.000
  0.000  -1.816  -0.000   0.000   0.000   0.000   2.554   0.000   0.000  -0.000   0.000   0.000  -0.508   0.000   0.000   0.069
  0.000  -0.000  -0.684   0.000   0.000   0.000   0.000   1.115   0.000  -0.000  -0.326   0.038   0.000   0.000   0.000   0.000
 -0.000   0.000   0.000  -1.816  -0.000   0.000   0.000   0.000   2.554   0.000  -0.000   0.000   0.000   0.000   0.508  -0.000
  0.000  -0.000   0.000  -0.000  -2.163  -0.000  -0.000  -0.000   0.000   2.657   0.000   0.000  -0.000   0.460   0.000   0.000
  0.000   0.000   0.384   0.000   0.000   0.000   0.000  -0.326  -0.000   0.000   2.468  -0.388   0.000   0.000   0.000   0.000
  0.000   0.000  -0.036   0.000   0.000   0.000   0.000   0.038   0.000   0.000  -0.388   0.071   0.000   0.000   0.000   0.000
  0.000   0.468   0.000   0.000   0.000   0.000  -0.508   0.000   0.000  -0.000   0.000   0.000   0.332   0.000   0.000  -0.037
  0.000   0.000   0.000   0.000  -0.343  -0.000   0.000   0.000   0.000   0.460   0.000   0.000   0.000   0.255   0.000   0.000
  0.000  -0.000  -0.000  -0.468  -0.000   0.000  -0.000   0.000   0.508   0.000   0.000   0.000   0.000   0.000   0.332   0.000
 -0.000  -0.065   0.000   0.000   0.000   0.000   0.069   0.000  -0.000   0.000   0.000   0.000  -0.037   0.000  -0.000   0.005
  0.000   0.000  -0.000   0.000   0.060   0.000   0.000   0.000  -0.000  -0.065   0.000   0.000   0.000  -0.030   0.000   0.000
  0.000   0.000  -0.000   0.065  -0.000  -0.000  -0.000   0.000  -0.069  -0.000   0.000   0.000   0.000   0.000  -0.037   0.000


------------------------ aborting loop because EDIFF is reached ----------------------------------------


    CHARGE:  cpu time    0.0440: real time    0.0466
    FORLOC:  cpu time    0.0040: real time    0.0012
    FORNL :  cpu time    0.1520: real time    0.1529
    STRESS:  cpu time    0.3960: real time    0.3973
    FORCOR:  cpu time    0.0080: real time    0.0079
    FORHAR:  cpu time    0.0040: real time    0.0018
    MIXING:  cpu time    0.0000: real time    0.0007
    OFIELD:  cpu time    0.0000: real time    0.0000

  FORCE on cell =-STRESS in cart. coord.  units (eV):
  Direction    XX          YY          ZZ          XY          YZ          ZX
  --------------------------------------------------------------------------------------
  Alpha Z   101.58502   101.58502   101.58502
  Ewald     -36.87309   -36.87309 -1072.75436    -0.00000     0.00000     0.00000
  Hartree   496.52857   496.52857  -312.09593    -0.00000    -0.00000    -0.00000
  E(xc)    -123.35754  -123.35754  -124.03855     0.00000     0.00000     0.00000
  Local    -819.67886  -819.67886  1017.55602     0.00000    -0.00000    -0.00000
  n-local    24.37339    26.61330    25.09749     0.82250     0.08842     0.27999
  augment    65.65272    65.65272    67.97797    -0.00000    -0.00000     0.00000
  Kinetic   293.53938   286.81361   296.45599    -1.14894    -0.18738     0.02113
  Fock        0.00000     0.00000     0.00000     0.00000     0.00000     0.00000
  -------------------------------------------------------------------------------------
  Total      -0.47334    -0.47334    -0.21635     0.00000     0.00000     0.00000
  in kB      -9.51964    -9.51964    -4.35109     0.00000     0.00000     0.00000
  external pressure =       -7.80 kB  Pullay stress =        0.00 kB


 VOLUME and BASIS-vectors are now :
 -----------------------------------------------------------------------------
  energy-cutoff  :      267.88
  volume of cell :       79.66
      direct lattice vectors                 reciprocal lattice vectors
     3.688905000  0.000000000  0.000000000     0.271083153  0.000000000  0.000000000
     0.000000000  3.688905000  0.000000000     0.000000000  0.271083153  0.000000000
     0.000000000  0.000000000  5.854194000     0.000000000  0.000000000  0.170817708

  length of vectors
     3.688905000  3.688905000  5.854194000     0.271083153  0.271083153  0.170817708


 FORCES acting on ions
    electron-ion (+dipol)            ewald-force                    non-local-force                 convergence-correction
 -----------------------------------------------------------------------------------------------
   -.317E-14 -.122E-12 -.175E-12   -.357E-14 0.396E-14 0.000E+00   -.107E-17 0.134E-17 -.169E-16   -.573E-14 0.687E-15 0.143E-13
   0.755E-13 0.197E-12 -.182E-11   -.426E-14 0.313E-14 0.000E+00   0.167E-17 -.165E-17 -.143E-16   0.235E-13 0.842E-15 -.336E-13
   0.935E-14 0.433E-13 0.279E+03   0.323E-14 -.433E-14 -.280E+03   0.747E-18 0.217E-17 0.145E+01   -.352E-15 0.602E-14 -.383E-05
   0.106E-13 -.746E-13 -.279E+03   0.323E-14 -.400E-14 0.280E+03   -.186E-17 -.291E-17 -.145E+01   0.220E-14 -.386E-14 0.383E-05
 -----------------------------------------------------------------------------------------------
   0.923E-13 0.438E-13 -.219E-11   -.137E-14 -.124E-14 0.000E+00   -.517E-18 -.105E-17 0.000E+00   0.196E-13 0.368E-14 -.204E-13
 
 
 POSITION                                       TOTAL-FORCE (eV/Angst)
 -----------------------------------------------------------------------------------
      0.00000      0.00000      0.00000         0.000000      0.000000     -0.000000
      1.84445      1.84445      0.00000        -0.000000     -0.000000     -0.000000
      0.00000      1.84445      4.47738         0.000000     -0.000000     -0.014538
      1.84445      0.00000      1.37682        -0.000000     -0.000000      0.014538
 -----------------------------------------------------------------------------------
    total drift:                                0.000000      0.000000     -0.000000


--------------------------------------------------------------------------------------------------------



  FREE ENERGIE OF THE ION-ELECTRON SYSTEM (eV)
  ---------------------------------------------------
  free  energy   TOTEN  =       -24.60459975 eV

  energy  without entropy=      -24.60231363  energy(sigma->0) =      -24.60402822
 


--------------------------------------------------------------------------------------------------------


    POTLOK:  cpu time    0.2160: real time    0.2171


--------------------------------------------------------------------------------------------------------


 writing wavefunctions
     LOOP+:  cpu time   14.4520: real time   14.4897
    4ORBIT:  cpu time    0.0000: real time    0.0000

 total amount of memory used by VASP MPI-rank0    49670. kBytes
=======================================================================

   base      :      30000. kBytes
   nonl-proj :      14013. kBytes
   fftplans  :        452. kBytes
   grid      :        958. kBytes
   one-center:         62. kBytes
   wavefun   :       4185. kBytes
 
  
  
 General timing and accounting informations for this job:
 ========================================================
  
                  Total CPU time used (sec):       20.204
                            User time (sec):       19.376
                          System time (sec):        0.828
                         Elapsed time (sec):       20.292
  
                   Maximum memory used (kb):       90980.
                   Average memory used (kb):           0.
  
                          Minor page faults:       273389
                          Major page faults:            3
                 Voluntary context switches:          585
