 running on    4 total cores
 distrk:  each k-point on    4 cores,    1 groups
 distr:  one band on    1 cores,    4 groups
 using from now: INCAR     
 vasp.6.1.1 19Jun20 (build Jul 17 2020 22:48:28) complex                        
  
 POSCAR found type information on POSCAR FeSe
 POSCAR found :  2 types and       4 ions
 scaLAPACK will be used
 LDA part: xc-table for Pade appr. of Perdew
 generate k-points for:    9    9    6
 POSCAR, INCAR and KPOINTS ok, starting setup
 FFT: planning ...
 WAVECAR not read
 entering main loop
       N       E                     dE             d eps       ncg     rms          rms(c)
DAV:   1     0.150957655955E+03    0.15096E+03   -0.82776E+03  2408   0.810E+02
DAV:   2    -0.134978850263E+02   -0.16446E+03   -0.15748E+03  2400   0.252E+02
DAV:   3    -0.261878243403E+02   -0.12690E+02   -0.12264E+02  2904   0.768E+01
DAV:   4    -0.265650137462E+02   -0.37719E+00   -0.37593E+00  2784   0.156E+01
DAV:   5    -0.265758730550E+02   -0.10859E-01   -0.10856E-01  2984   0.236E+00    0.160E+01
DAV:   6    -0.277949228449E+02   -0.12190E+01   -0.29455E+01  3284   0.726E+01    0.150E+01
DAV:   7    -0.246978780578E+02    0.30970E+01   -0.16622E+01  3092   0.592E+01    0.509E+00
DAV:   8    -0.246327840048E+02    0.65094E-01   -0.12550E+00  2904   0.899E+00    0.156E+00
DAV:   9    -0.246075235707E+02    0.25260E-01   -0.72014E-02  3636   0.312E+00    0.556E-01
DAV:  10    -0.246042732676E+02    0.32503E-02   -0.22278E-02  2976   0.824E-01    0.118E-01
DAV:  11    -0.246045036649E+02   -0.23040E-03   -0.88606E-04  2624   0.274E-01    0.777E-02
DAV:  12    -0.246045763796E+02   -0.72715E-04   -0.12217E-04  2696   0.874E-02    0.393E-02
DAV:  13    -0.246045982673E+02   -0.21888E-04   -0.10644E-04  3040   0.755E-02    0.105E-02
DAV:  14    -0.246045997340E+02   -0.14667E-05   -0.88378E-06  2928   0.366E-02    0.419E-03
DAV:  15    -0.246045993492E+02    0.38478E-06   -0.11509E-06  2688   0.126E-02    0.306E-03
DAV:  16    -0.246045996765E+02   -0.32729E-06   -0.24774E-07  3324   0.692E-03    0.432E-04
DAV:  17    -0.246045997563E+02   -0.79749E-07   -0.23956E-08  2428   0.958E-04    0.935E-05
DAV:  18    -0.246045997514E+02    0.48526E-08   -0.13148E-09  1456   0.406E-04
   1 F= -.24604600E+02 E0= -.24604028E+02  d E =-.228612E-02
 writing wavefunctions
