FeSe                                    
           1
     3.688905    0.000000    0.000000
     0.000000    3.688905    0.000000
     0.000000    0.000000    5.854194
   Fe   Se
     2     2
Direct configuration=     1
   0.00000000  0.00000000  0.00000000
   0.50000000  0.50000000  0.00000000
   0.00000000  0.50000000  0.76481500
   0.50000000  0.00000000  0.23518500
