SrVO3                                   
   3.84652000000000     
     1.000000    0.000000    0.000000
     0.000000    1.000000    0.000000
     0.000000    0.000000    1.000000
   Sr   V    O 
     1     1     3
Direct
  0.000000  0.000000  0.000000
  0.500000  0.500000  0.500000
  0.500000  0.500000  0.000000
  0.000000  0.500000  0.500000
  0.500000  0.000000  0.500000
 
   40   40   40
  185.65      185.55      184.46      180.41      171.15      155.36      133.40      107.47      80.854      56.803    
  37.502      23.627      14.564      9.0293      5.8092      4.0194      3.0547      2.5475      2.2908      2.1734    
  2.1399      2.1734      2.2908      2.5475      3.0547      4.0194      5.8092      9.0293      14.564      23.627    
  37.502      56.803      80.854      107.47      133.40      155.36      171.15      180.41      184.46      185.55    
  185.55      185.31      183.86      179.31      169.58      153.45      131.38      105.58      79.269      55.614    
  36.702      23.143      14.302      8.9031      5.7600      4.0077      3.0556      2.5466      2.2821      2.1572    
  2.1207      2.1572      2.2821      2.5466      3.0556      4.0077      5.7600      8.9031      14.302      23.143    
  36.702      55.614      79.269      105.58      131.38      153.45      169.58      179.31      183.86      185.31    
  184.46      183.86      181.42      175.55      164.55      147.59      125.33      99.996      74.652      52.181    
  34.408      21.768      13.563      8.5520      5.6350      4.0025      3.1065      2.6185      2.3581      2.2315    
  2.1938      2.2315      2.3581      2.6185      3.1065      4.0025      5.6350      8.5520      13.563      21.768    
  34.408      52.181      74.652      99.996      125.33      147.59      164.55      175.55      181.42      183.86    
  180.41      179.31      175.55      167.96      155.41      137.55      115.37      91.063      67.417      46.894    
  30.928      19.708      12.467      8.0473      5.4815      4.0499      3.2705      2.8541      2.6395      2.5398    
  2.5112      2.5398      2.6395      2.8541      3.2705      4.0499      5.4815      8.0473      12.467      19.708    
  30.928      46.894      67.417      91.063      115.37      137.55      155.41      167.96      175.55      179.31    
  171.15      169.58      164.55      155.41      141.61      123.38      101.95      79.444      58.266      40.360    
  26.710      17.253      11.182      7.4843      5.3497      4.1706      3.5440      3.2264      3.0774      3.0168    
  3.0014      3.0168      3.0774      3.2264      3.5440      4.1706      5.3497      7.4843      11.182      17.253    
  26.710      40.360      58.266      79.444      101.95      123.38      141.61      155.41      164.55      169.58    
  155.36      153.45      147.59      137.55      123.38      105.73      86.011      66.166      48.131      33.311    
  22.264      14.719      9.8944      6.9776      5.3141      4.4147      3.9568      3.7433      3.6581      3.6323    
  3.6280      3.6323      3.6581      3.7433      3.9568      4.4147      5.3141      6.9776      9.8944      14.719    
  22.264      33.311      48.131      66.166      86.011      105.73      123.38      137.55      147.59      153.45    
  133.40      131.38      125.33      115.37      101.95      86.011      68.982      52.506      38.038      26.487    
  18.065      12.388      8.7901      6.6651      5.5035      4.9284      4.6884      4.6254      4.6407      4.6733    
  4.6881      4.6733      4.6407      4.6254      4.6884      4.9284      5.5035      6.6651      8.7901      12.388    
  18.065      26.487      38.038      52.506      68.982      86.011      101.95      115.37      125.33      131.38    
  107.47      105.58      99.996      91.063      79.444      66.166      52.506      39.753      28.908      20.487    
  14.478      10.487      8.0432      6.7010      6.0842      5.9116      5.9862      6.1721      6.3734      6.5223    
  6.5768      6.5223      6.3734      6.1721      5.9862      5.9116      6.0842      6.7010      8.0432      10.487    
  14.478      20.487      28.908      39.753      52.506      66.166      79.444      91.063      99.996      105.58    
  80.854      79.269      74.652      67.417      58.266      48.131      38.038      28.908      21.373      15.676    
  11.707      9.1866      7.8006      7.2335      7.2156      7.5349      8.0277      8.5635      9.0351      9.3566    
  9.4707      9.3566      9.0351      8.5635      8.0277      7.5349      7.2156      7.2335      7.8006      9.1866    
  11.707      15.676      21.373      28.908      38.038      48.131      58.266      67.417      74.652      79.269    
  56.803      55.614      52.181      46.894      40.360      33.311      26.487      20.487      15.676      12.152    
  9.8392      8.5822      8.1704      8.3888      9.0429      9.9640      11.002      12.015      12.866      13.436    
  13.636      13.436      12.866      12.015      11.002      9.9640      9.0429      8.3888      8.1704      8.5822    
  9.8392      12.152      15.676      20.487      26.487      33.311      40.360      46.894      52.181      55.614    
  37.502      36.702      34.408      30.928      26.710      22.264      18.065      14.478      11.707      9.8392    
  8.8661      8.7012      9.2175      10.277      11.744      13.483      15.342      17.137      18.654      19.674    
  20.035      19.674      18.654      17.137      15.342      13.483      11.744      10.277      9.2175      8.7012    
  8.8661      9.8392      11.707      14.478      18.065      22.264      26.710      30.928      34.408      36.702    
  23.627      23.143      21.768      19.708      17.253      14.719      12.388      10.487      9.1866      8.5822    
  8.7012      9.5176      10.977      13.021      15.590      18.593      21.864      25.109      27.918      29.842    
  30.528      29.842      27.918      25.109      21.864      18.593      15.590      13.021      10.977      9.5176    
  8.7012      8.5822      9.1866      10.487      12.388      14.719      17.253      19.708      21.768      23.143    
  14.564      14.302      13.563      12.467      11.182      9.8944      8.7901      8.0432      7.8006      8.1704    
  9.2175      10.977      13.486      16.806      21.009      26.088      31.832      37.712      42.918      46.533    
  47.830      46.533      42.918      37.712      31.832      26.088      21.009      16.806      13.486      10.977    
  9.2175      8.1704      7.8006      8.0432      8.7901      9.8944      11.182      12.467      13.563      14.302    
  9.0293      8.9031      8.5520      8.0473      7.4843      6.9776      6.6651      6.7010      7.2335      8.3888    
  10.277      13.021      16.806      21.904      28.618      37.083      46.972      57.303      66.548      73.065    
  75.434      73.065      66.548      57.303      46.972      37.083      28.618      21.904      16.806      13.021    
  10.277      8.3888      7.2335      6.7010      6.6651      6.9776      7.4843      8.0473      8.5520      8.9031    
  5.8092      5.7600      5.6350      5.4815      5.3497      5.3141      5.5035      6.0842      7.2156      9.0429    
  11.744      15.590      21.009      28.618      39.095      52.757      69.022      86.630      103.20      115.22    
  119.63      115.22      103.20      86.630      69.022      52.757      39.095      28.618      21.009      15.590    
  11.744      9.0429      7.2156      6.0842      5.5035      5.3141      5.3497      5.4815      5.6350      5.7600    
  4.0194      4.0077      4.0025      4.0499      4.1706      4.4147      4.9284      5.9116      7.5349      9.9640    
  13.483      18.593      26.088      37.083      52.757      73.651      99.941      129.72      157.86      178.06    
  185.40      178.06      157.86      129.72      99.941      73.651      52.757      37.083      26.088      18.593    
  13.483      9.9640      7.5349      5.9116      4.9284      4.4147      4.1706      4.0499      4.0025      4.0077    
  3.0547      3.0556      3.1065      3.2705      3.5440      3.9568      4.6884      5.9862      8.0277      11.002    
  15.342      21.864      31.832      46.972      69.022      99.941      140.44      185.84      227.42      256.31    
  266.59      256.31      227.42      185.84      140.44      99.941      69.022      46.972      31.832      21.864    
  15.342      11.002      8.0277      5.9862      4.6884      3.9568      3.5440      3.2705      3.1065      3.0556    
  2.5475      2.5466      2.6185      2.8541      3.2264      3.7433      4.6254      6.1721      8.5635      12.015    
  17.137      25.109      37.712      57.303      86.630      129.72      185.84      246.50      299.40      334.44    
  346.54      334.44      299.40      246.50      185.84      129.72      86.630      57.303      37.712      25.109    
  17.137      12.015      8.5635      6.1721      4.6254      3.7433      3.2264      2.8541      2.6185      2.5466    
  2.2908      2.2821      2.3581      2.6395      3.0774      3.6581      4.6407      6.3734      9.0351      12.866    
  18.654      27.918      42.918      66.548      103.20      157.86      227.42      299.40      358.73      395.80    
  408.11      395.80      358.73      299.40      227.42      157.86      103.20      66.548      42.918      27.918    
  18.654      12.866      9.0351      6.3734      4.6407      3.6581      3.0774      2.6395      2.3581      2.2821    
  2.1734      2.1572      2.2315      2.5398      3.0168      3.6323      4.6733      6.5223      9.3566      13.436    
  19.674      29.842      46.533      73.065      115.22      178.06      256.31      334.44      395.80      432.08    
  443.62      432.08      395.80      334.44      256.31      178.06      115.22      73.065      46.533      29.842    
  19.674      13.436      9.3566      6.5223      4.6733      3.6323      3.0168      2.5398      2.2315      2.1572    
  2.1399      2.1207      2.1938      2.5112      3.0014      3.6280      4.6881      6.5768      9.4707      13.636    
  20.035      30.528      47.830      75.434      119.63      185.40      266.59      346.54      408.11      443.62    
  454.71      443.62      408.11      346.54      266.59      185.40      119.63      75.434      47.830      30.528    
  20.035      13.636      9.4707      6.5768      4.6881      3.6280      3.0014      2.5112      2.1938      2.1207    
  2.1734      2.1572      2.2315      2.5398      3.0168      3.6323      4.6733      6.5223      9.3566      13.436    
  19.674      29.842      46.533      73.065      115.22      178.06      256.31      334.44      395.80      432.08    
  443.62      432.08      395.80      334.44      256.31      178.06      115.22      73.065      46.533      29.842    
  19.674      13.436      9.3566      6.5223      4.6733      3.6323      3.0168      2.5398      2.2315      2.1572    
  2.2908      2.2821      2.3581      2.6395      3.0774      3.6581      4.6407      6.3734      9.0351      12.866    
  18.654      27.918      42.918      66.548      103.20      157.86      227.42      299.40      358.73      395.80    
  408.11      395.80      358.73      299.40      227.42      157.86      103.20      66.548      42.918      27.918    
  18.654      12.866      9.0351      6.3734      4.6407      3.6581      3.0774      2.6395      2.3581      2.2821    
  2.5475      2.5466      2.6185      2.8541      3.2264      3.7433      4.6254      6.1721      8.5635      12.015    
  17.137      25.109      37.712      57.303      86.630      129.72      185.84      246.50      299.40      334.44    
  346.54      334.44      299.40      246.50      185.84      129.72      86.630      57.303      37.712      25.109    
  17.137      12.015      8.5635      6.1721      4.6254      3.7433      3.2264      2.8541      2.6185      2.5466    
  3.0547      3.0556      3.1065      3.2705      3.5440      3.9568      4.6884      5.9862      8.0277      11.002    
  15.342      21.864      31.832      46.972      69.022      99.941      140.44      185.84      227.42      256.31    
  266.59      256.31      227.42      185.84      140.44      99.941      69.022      46.972      31.832      21.864    
  15.342      11.002      8.0277      5.9862      4.6884      3.9568      3.5440      3.2705      3.1065      3.0556    
  4.0194      4.0077      4.0025      4.0499      4.1706      4.4147      4.9284      5.9116      7.5349      9.9640    
  13.483      18.593      26.088      37.083      52.757      73.651      99.941      129.72      157.86      178.06    
  185.40      178.06      157.86      129.72      99.941      73.651      52.757      37.083      26.088      18.593    
  13.483      9.9640      7.5349      5.9116      4.9284      4.4147      4.1706      4.0499      4.0025      4.0077    
  5.8092      5.7600      5.6350      5.4815      5.3497      5.3141      5.5035      6.0842      7.2156      9.0429    
  11.744      15.590      21.009      28.618      39.095      52.757      69.022      86.630      103.20      115.22    
  119.63      115.22      103.20      86.630      69.022      52.757      39.095      28.618      21.009      15.590    
  11.744      9.0429      7.2156      6.0842      5.5035      5.3141      5.3497      5.4815      5.6350      5.7600    
  9.0293      8.9031      8.5520      8.0473      7.4843      6.9776      6.6651      6.7010      7.2335      8.3888    
  10.277      13.021      16.806      21.904      28.618      37.083      46.972      57.303      66.548      73.065    
  75.434      73.065      66.548      57.303      46.972      37.083      28.618      21.904      16.806      13.021    
  10.277      8.3888      7.2335      6.7010      6.6651      6.9776      7.4843      8.0473      8.5520      8.9031    
  14.564      14.302      13.563      12.467      11.182      9.8944      8.7901      8.0432      7.8006      8.1704    
  9.2175      10.977      13.486      16.806      21.009      26.088      31.832      37.712      42.918      46.533    
  47.830      46.533      42.918      37.712      31.832      26.088      21.009      16.806      13.486      10.977    
  9.2175      8.1704      7.8006      8.0432      8.7901      9.8944      11.182      12.467      13.563      14.302    
  23.627      23.143      21.768      19.708      17.253      14.719      12.388      10.487      9.1866      8.5822    
  8.7012      9.5176      10.977      13.021      15.590      18.593      21.864      25.109      27.918      29.842    
  30.528      29.842      27.918      25.109      21.864      18.593      15.590      13.021      10.977      9.5176    
  8.7012      8.5822      9.1866      10.487      12.388      14.719      17.253      19.708      21.768      23.143    
  37.502      36.702      34.408      30.928      26.710      22.264      18.065      14.478      11.707      9.8392    
  8.8661      8.7012      9.2175      10.277      11.744      13.483      15.342      17.137      18.654      19.674    
  20.035      19.674      18.654      17.137      15.342      13.483      11.744      10.277      9.2175      8.7012    
  8.8661      9.8392      11.707      14.478      18.065      22.264      26.710      30.928      34.408      36.702    
  56.803      55.614      52.181      46.894      40.360      33.311      26.487      20.487      15.676      12.152    
  9.8392      8.5822      8.1704      8.3888      9.0429      9.9640      11.002      12.015      12.866      13.436    
  13.636      13.436      12.866      12.015      11.002      9.9640      9.0429      8.3888      8.1704      8.5822    
  9.8392      12.152      15.676      20.487      26.487      33.311      40.360      46.894      52.181      55.614    
  80.854      79.269      74.652      67.417      58.266      48.131      38.038      28.908      21.373      15.676    
  11.707      9.1866      7.8006      7.2335      7.2156      7.5349      8.0277      8.5635      9.0351      9.3566    
  9.4707      9.3566      9.0351      8.5635      8.0277      7.5349      7.2156      7.2335      7.8006      9.1866    
  11.707      15.676      21.373      28.908      38.038      48.131      58.266      67.417      74.652      79.269    
  107.47      105.58      99.996      91.063      79.444      66.166      52.506      39.753      28.908      20.487    
  14.478      10.487      8.0432      6.7010      6.0842      5.9116      5.9862      6.1721      6.3734      6.5223    
  6.5768      6.5223      6.3734      6.1721      5.9862      5.9116      6.0842      6.7010      8.0432      10.487    
  14.478      20.487      28.908      39.753      52.506      66.166      79.444      91.063      99.996      105.58    
  133.40      131.38      125.33      115.37      101.95      86.011      68.982      52.506      38.038      26.487    
  18.065      12.388      8.7901      6.6651      5.5035      4.9284      4.6884      4.6254      4.6407      4.6733    
  4.6881      4.6733      4.6407      4.6254      4.6884      4.9284      5.5035      6.6651      8.7901      12.388    
  18.065      26.487      38.038      52.506      68.982      86.011      101.95      115.37      125.33      131.38    
  155.36      153.45      147.59      137.55      123.38      105.73      86.011      66.166      48.131      33.311    
  22.264      14.719      9.8944      6.9776      5.3141      4.4147      3.9568      3.7433      3.6581      3.6323    
  3.6280      3.6323      3.6581      3.7433      3.9568      4.4147      5.3141      6.9776      9.8944      14.719    
  22.264      33.311      48.131      66.166      86.011      105.73      123.38      137.55      147.59      153.45    
  171.15      169.58      164.55      155.41      141.61      123.38      101.95      79.444      58.266      40.360    
  26.710      17.253      11.182      7.4843      5.3497      4.1706      3.5440      3.2264      3.0774      3.0168    
  3.0014      3.0168      3.0774      3.2264      3.5440      4.1706      5.3497      7.4843      11.182      17.253    
  26.710      40.360      58.266      79.444      101.95      123.38      141.61      155.41      164.55      169.58    
  180.41      179.31      175.55      167.96      155.41      137.55      115.37      91.063      67.417      46.894    
  30.928      19.708      12.467      8.0473      5.4815      4.0499      3.2705      2.8541      2.6395      2.5398    
  2.5112      2.5398      2.6395      2.8541      3.2705      4.0499      5.4815      8.0473      12.467      19.708    
  30.928      46.894      67.417      91.063      115.37      137.55      155.41      167.96      175.55      179.31    
  184.46      183.86      181.42      175.55      164.55      147.59      125.33      99.996      74.652      52.181    
  34.408      21.768      13.563      8.5520      5.6350      4.0025      3.1065      2.6185      2.3581      2.2315    
  2.1938      2.2315      2.3581      2.6185      3.1065      4.0025      5.6350      8.5520      13.563      21.768    
  34.408      52.181      74.652      99.996      125.33      147.59      164.55      175.55      181.42      183.86    
  185.55      185.31      183.86      179.31      169.58      153.45      131.38      105.58      79.269      55.614    
  36.702      23.143      14.302      8.9031      5.7600      4.0077      3.0556      2.5466      2.2821      2.1572    
  2.1207      2.1572      2.2821      2.5466      3.0556      4.0077      5.7600      8.9031      14.302      23.143    
  36.702      55.614      79.269      105.58      131.38      153.45      169.58      179.31      183.86      185.31    
  185.55      185.31      183.86      179.31      169.58      153.45      131.38      105.58      79.269      55.614    
  36.702      23.143      14.302      8.9031      5.7600      4.0077      3.0556      2.5466      2.2821      2.1572    
  2.1207      2.1572      2.2821      2.5466      3.0556      4.0077      5.7600      8.9031      14.302      23.143    
  36.702      55.614      79.269      105.58      131.38      153.45      169.58      179.31      183.86      185.31    
  185.31      184.95      183.14      178.13      167.95      151.51      129.36      103.70      77.707      54.446    
  35.917      22.671      14.047      8.7797      5.7124      3.9977      3.0589      2.5495      2.2787      2.1474    
  2.1083      2.1474      2.2787      2.5495      3.0589      3.9977      5.7124      8.7797      14.047      22.671    
  35.917      54.446      77.707      103.70      129.36      151.51      167.95      178.13      183.14      184.95    
  183.86      183.14      180.40      174.15      162.79      145.60      123.32      98.169      73.155      51.076    
  33.672      21.326      13.323      8.4364      5.5910      3.9950      3.1135      2.6276      2.3634      2.2324    
  2.1928      2.2324      2.3634      2.6276      3.1135      3.9950      5.5910      8.4364      13.323      21.326    
  33.672      51.076      73.155      98.169      123.32      145.60      162.79      174.15      180.40      183.14    
  179.31      178.13      174.15      166.28      153.49      135.52      113.41      89.335      66.034      45.891    
  30.268      19.314      12.252      7.9428      5.4411      4.0429      3.2777      2.8644      2.6476      2.5446    
  2.5146      2.5446      2.6476      2.8644      3.2777      4.0429      5.4411      7.9428      12.252      19.314    
  30.268      45.891      66.034      89.335      113.41      135.52      153.49      166.28      174.15      178.13    
  169.58      167.95      162.79      153.49      139.59      121.37      100.10      77.871      57.042      39.490    
  26.145      16.917      10.997      7.3926      5.3124      4.1621      3.5482      3.2340      3.0839      3.0211    
  3.0046      3.0211      3.0839      3.2340      3.5482      4.1621      5.3124      7.3926      10.997      16.917    
  26.145      39.490      57.042      77.871      100.10      121.37      139.59      153.49      162.79      167.95    
  153.45      151.51      145.60      135.52      121.37      103.84      84.345      64.803      47.101      32.596    
  21.804      14.445      9.7400      6.8979      5.2780      4.4021      3.9553      3.7459      3.6611      3.6345    
  3.6297      3.6345      3.6611      3.7459      3.9553      4.4021      5.2780      6.8979      9.7400      14.445    
  21.804      32.596      47.101      64.803      84.345      103.84      121.37      135.52      145.60      151.51    
  131.38      129.36      123.32      113.41      100.10      84.345      67.573      51.392      37.220      25.929    
  17.709      12.171      8.6632      6.5932      5.4631      4.9047      4.6728      4.6128      4.6288      4.6611    
  4.6756      4.6611      4.6288      4.6128      4.6728      4.9047      5.4631      6.5932      8.6632      12.171    
  17.709      25.929      37.220      51.392      67.573      84.345      100.10      113.41      123.32      129.36    
  105.58      103.70      98.169      89.335      77.871      64.803      51.392      38.899      28.296      20.074    
  14.211      10.319      7.9359      6.6292      6.0306      5.8656      5.9419      6.1263      6.3250      6.4718    
  6.5255      6.4718      6.3250      6.1263      5.9419      5.8656      6.0306      6.6292      7.9359      10.319    
  14.211      20.074      28.296      38.899      51.392      64.803      77.871      89.335      98.169      103.70    
  79.269      77.707      73.155      66.034      57.042      47.101      37.220      28.296      20.940      15.382    
  11.510      9.0520      7.7021      7.1520      7.1386      7.4549      7.9406      8.4678      8.9312      9.2471    
  9.3590      9.2471      8.9312      8.4678      7.9406      7.4549      7.1386      7.1520      7.7021      9.0520    
  11.510      15.382      20.940      28.296      37.220      47.101      57.042      66.034      73.155      77.707    
  55.614      54.446      51.076      45.891      39.490      32.596      25.929      20.074      15.382      11.944    
  9.6898      8.4662      8.0685      8.2869      8.9316      9.8374      10.857      11.850      12.685      13.242    
  13.439      13.242      12.685      11.850      10.857      9.8374      8.9316      8.2869      8.0685      8.4662    
  9.6898      11.944      15.382      20.074      25.929      32.596      39.490      45.891      51.076      54.446    
  36.702      35.917      33.672      30.268      26.145      21.804      17.709      14.211      11.510      9.6898    
  8.7440      8.5883      9.0993      10.142      11.582      13.286      15.104      16.858      18.336      19.330    
  19.681      19.330      18.336      16.858      15.104      13.286      11.582      10.142      9.0993      8.5883    
  8.7440      9.6898      11.510      14.211      17.709      21.804      26.145      30.268      33.672      35.917    
  23.143      22.671      21.326      19.314      16.917      14.445      12.171      10.319      9.0520      8.4662    
  8.5883      9.3936      10.829      12.834      15.346      18.277      21.459      24.610      27.332      29.195    
  29.859      29.195      27.332      24.610      21.459      18.277      15.346      12.834      10.829      9.3936    
  8.5883      8.4662      9.0520      10.319      12.171      14.445      16.917      19.314      21.326      22.671    
  14.302      14.047      13.323      12.252      10.997      9.7400      8.6632      7.9359      7.7021      8.0685    
  9.0993      10.829      13.289      16.536      20.630      25.562      31.123      36.805      41.829      45.315    
  46.566      45.315      41.829      36.805      31.123      25.562      20.630      16.536      13.289      10.829    
  9.0993      8.0685      7.7021      7.9359      8.6632      9.7400      10.997      12.252      13.323      14.047    
  8.9031      8.7797      8.4364      7.9428      7.3926      6.8979      6.5932      6.6292      7.1520      8.2869    
  10.142      12.834      16.536      21.502      28.017      36.202      45.743      55.700      64.600      70.851    
  73.118      70.851      64.600      55.700      45.743      36.202      28.017      21.502      16.536      12.834    
  10.142      8.2869      7.1520      6.6292      6.5932      6.8979      7.3926      7.9428      8.4364      8.7797    
  5.7600      5.7124      5.5910      5.4411      5.3124      5.2780      5.4631      6.0306      7.1386      8.9316    
  11.582      15.346      20.630      28.017      38.146      51.321      66.976      83.819      99.619      111.08    
  115.28      111.08      99.619      83.819      66.976      51.321      38.146      28.017      20.630      15.346    
  11.582      8.9316      7.1386      6.0306      5.4631      5.2780      5.3124      5.4411      5.5910      5.7124    
  4.0077      3.9977      3.9950      4.0429      4.1621      4.4021      4.9047      5.8656      7.4549      9.8374    
  13.286      18.277      25.562      36.202      51.321      71.413      96.512      124.89      151.73      171.03    
  178.06      171.03      151.73      124.89      96.512      71.413      51.321      36.202      25.562      18.277    
  13.286      9.8374      7.4549      5.8656      4.9047      4.4021      4.1621      4.0429      3.9950      3.9977    
  3.0556      3.0589      3.1135      3.2777      3.5482      3.9553      4.6728      5.9419      7.9406      10.857    
  15.104      21.459      31.123      45.743      66.976      96.512      135.10      178.47      218.36      246.20    
  256.13      246.20      218.36      178.47      135.10      96.512      66.976      45.743      31.123      21.459    
  15.104      10.857      7.9406      5.9419      4.6728      3.9553      3.5482      3.2777      3.1135      3.0589    
  2.5466      2.5495      2.6276      2.8644      3.2340      3.7459      4.6128      6.1263      8.4678      11.850    
  16.858      24.610      36.805      55.700      83.819      124.89      178.47      236.73      287.93      322.11    
  333.98      322.11      287.93      236.73      178.47      124.89      83.819      55.700      36.805      24.610    
  16.858      11.850      8.4678      6.1263      4.6128      3.7459      3.2340      2.8644      2.6276      2.5495    
  2.2821      2.2787      2.3634      2.6476      3.0839      3.6611      4.6288      6.3250      8.9312      12.685    
  18.336      27.332      41.829      64.600      99.619      151.73      218.36      287.93      345.97      382.70    
  395.00      382.70      345.97      287.93      218.36      151.73      99.619      64.600      41.829      27.332    
  18.336      12.685      8.9312      6.3250      4.6288      3.6611      3.0839      2.6476      2.3634      2.2787    
  2.1572      2.1474      2.2324      2.5446      3.0211      3.6345      4.6611      6.4718      9.2471      13.242    
  19.330      29.195      45.315      70.851      111.08      171.03      246.20      322.11      382.70      419.20    
  430.99      419.20      382.70      322.11      246.20      171.03      111.08      70.851      45.315      29.195    
  19.330      13.242      9.2471      6.4718      4.6611      3.6345      3.0211      2.5446      2.2324      2.1474    
  2.1207      2.1083      2.1928      2.5146      3.0046      3.6297      4.6756      6.5255      9.3590      13.439    
  19.681      29.859      46.566      73.118      115.28      178.06      256.13      333.98      395.00      430.99    
  442.42      430.99      395.00      333.98      256.13      178.06      115.28      73.118      46.566      29.859    
  19.681      13.439      9.3590      6.5255      4.6756      3.6297      3.0046      2.5146      2.1928      2.1083    