SrVO3                                   
   3.84652000000000     
     1.000000    0.000000    0.000000
     0.000000    1.000000    0.000000
     0.000000    0.000000    1.000000
   Sr   V    O 
     1     1     3
Direct
  0.000000  0.000000  0.000000
  0.500000  0.500000  0.500000
  0.500000  0.500000  0.000000
  0.000000  0.500000  0.500000
  0.500000  0.000000  0.500000
 
   40   40   40
 0.18564872945E+03 0.18554731179E+03 0.18446045939E+03 0.18040536033E+03 0.17115001796E+03
 0.15535625159E+03 0.13340102268E+03 0.10746955850E+03 0.80853840267E+02 0.56803355357E+02
 0.37502118279E+02 0.23626565927E+02 0.14564077516E+02 0.90293161944E+01 0.58091894067E+01
 0.40193670136E+01 0.30547193207E+01 0.25474917862E+01 0.22907851472E+01 0.21733690517E+01
 0.21399028352E+01 0.21733690517E+01 0.22907851472E+01 0.25474917862E+01 0.30547193207E+01
 0.40193670136E+01 0.58091894067E+01 0.90293161944E+01 0.14564077516E+02 0.23626565927E+02
 0.37502118279E+02 0.56803355357E+02 0.80853840267E+02 0.10746955850E+03 0.13340102268E+03
 0.15535625159E+03 0.17115001796E+03 0.18040536033E+03 0.18446045939E+03 0.18554731179E+03
 0.18554731179E+03 0.18531089011E+03 0.18385783525E+03 0.17931021782E+03 0.16957533532E+03
 0.15344584746E+03 0.13138090447E+03 0.10557671763E+03 0.79269397492E+02 0.55614321525E+02
 0.36701500722E+02 0.23143198527E+02 0.14302407399E+02 0.89030951255E+01 0.57600493297E+01
 0.40077408805E+01 0.30555745079E+01 0.25465804759E+01 0.22820806401E+01 0.21571725500E+01
 0.21207121457E+01 0.21571725500E+01 0.22820806401E+01 0.25465804759E+01 0.30555745079E+01
 0.40077408805E+01 0.57600493297E+01 0.89030951255E+01 0.14302407399E+02 0.23143198527E+02
 0.36701500722E+02 0.55614321525E+02 0.79269397492E+02 0.10557671763E+03 0.13138090447E+03
 0.15344584746E+03 0.16957533532E+03 0.17931021782E+03 0.18385783525E+03 0.18531089011E+03
 0.18446045939E+03 0.18385783525E+03 0.18141511262E+03 0.17554844004E+03 0.16455435496E+03
 0.14758794895E+03 0.12533008895E+03 0.99995628961E+02 0.74651676984E+02 0.52181159130E+02
 0.34408066764E+02 0.21768076179E+02 0.13562711330E+02 0.85520437158E+01 0.56350487524E+01
 0.40025376718E+01 0.31065024365E+01 0.26185432717E+01 0.23581081073E+01 0.22315022553E+01
 0.21938054718E+01 0.22315022553E+01 0.23581081073E+01 0.26185432717E+01 0.31065024365E+01
 0.40025376718E+01 0.56350487524E+01 0.85520437158E+01 0.13562711330E+02 0.21768076179E+02
 0.34408066764E+02 0.52181159130E+02 0.74651676984E+02 0.99995628961E+02 0.12533008895E+03
 0.14758794895E+03 0.16455435496E+03 0.17554844004E+03 0.18141511262E+03 0.18385783525E+03
 0.18040536033E+03 0.17931021782E+03 0.17554844004E+03 0.16796268175E+03 0.15540921000E+03
 0.13755369150E+03 0.11537030930E+03 0.91063118037E+02 0.67416873898E+02 0.46894448696E+02
 0.30927945588E+02 0.19707877442E+02 0.12467022670E+02 0.80473409012E+01 0.54814777815E+01
 0.40499146189E+01 0.32704536938E+01 0.28541129938E+01 0.26395365879E+01 0.25398379167E+01
 0.25111692711E+01 0.25398379167E+01 0.26395365879E+01 0.28541129938E+01 0.32704536938E+01
 0.40499146189E+01 0.54814777815E+01 0.80473409012E+01 0.12467022670E+02 0.19707877442E+02
 0.30927945588E+02 0.46894448696E+02 0.67416873898E+02 0.91063118037E+02 0.11537030930E+03
 0.13755369150E+03 0.15540921000E+03 0.16796268175E+03 0.17554844004E+03 0.17931021782E+03
 0.17115001796E+03 0.16957533532E+03 0.16455435496E+03 0.15540921000E+03 0.14161467105E+03
 0.12337860408E+03 0.10194856706E+03 0.79444444591E+02 0.58265632723E+02 0.40359673528E+02
 0.26710002686E+02 0.17253297645E+02 0.11182308580E+02 0.74843460414E+01 0.53497133463E+01
 0.41706366637E+01 0.35440012731E+01 0.32263727434E+01 0.30773983713E+01 0.30168399425E+01
 0.30013587258E+01 0.30168399425E+01 0.30773983713E+01 0.32263727434E+01 0.35440012731E+01
 0.41706366637E+01 0.53497133463E+01 0.74843460414E+01 0.11182308580E+02 0.17253297645E+02
 0.26710002686E+02 0.40359673528E+02 0.58265632723E+02 0.79444444591E+02 0.10194856706E+03
 0.12337860408E+03 0.14161467105E+03 0.15540921000E+03 0.16455435496E+03 0.16957533532E+03
 0.15535625159E+03 0.15344584746E+03 0.14758794895E+03 0.13755369150E+03 0.12337860408E+03
 0.10572603238E+03 0.86010872435E+02 0.66165621200E+02 0.48130566980E+02 0.33311499775E+02
 0.22263520739E+02 0.14718894843E+02 0.98944221861E+01 0.69775859914E+01 0.53141246772E+01
 0.44147492089E+01 0.39567599339E+01 0.37432969803E+01 0.36580571248E+01 0.36323289443E+01
 0.36279522856E+01 0.36323289443E+01 0.36580571248E+01 0.37432969803E+01 0.39567599339E+01
 0.44147492089E+01 0.53141246772E+01 0.69775859914E+01 0.98944221861E+01 0.14718894843E+02
 0.22263520739E+02 0.33311499775E+02 0.48130566980E+02 0.66165621200E+02 0.86010872435E+02
 0.10572603238E+03 0.12337860408E+03 0.13755369150E+03 0.14758794895E+03 0.15344584746E+03
 0.13340102268E+03 0.13138090447E+03 0.12533008895E+03 0.11537030930E+03 0.10194856706E+03
 0.86010872435E+02 0.68982381748E+02 0.52506059120E+02 0.38037790831E+02 0.26486814956E+02
 0.18065080437E+02 0.12388163249E+02 0.87901423998E+01 0.66651104383E+01 0.55034919346E+01
 0.49283536608E+01 0.46884352172E+01 0.46253540976E+01 0.46407212700E+01 0.46733398414E+01
 0.46881165986E+01 0.46733398414E+01 0.46407212700E+01 0.46253540976E+01 0.46884352172E+01
 0.49283536608E+01 0.55034919346E+01 0.66651104383E+01 0.87901423998E+01 0.12388163249E+02
 0.18065080437E+02 0.26486814956E+02 0.38037790831E+02 0.52506059120E+02 0.68982381748E+02
 0.86010872435E+02 0.10194856706E+03 0.11537030930E+03 0.12533008895E+03 0.13138090447E+03
 0.10746955850E+03 0.10557671763E+03 0.99995628961E+02 0.91063118037E+02 0.79444444591E+02
 0.66165621200E+02 0.52506059120E+02 0.39752559032E+02 0.28908308362E+02 0.20486979355E+02
 0.14477627182E+02 0.10487422283E+02 0.80431544537E+01 0.67009927141E+01 0.60842495756E+01
 0.59116033073E+01 0.59862346418E+01 0.61721323059E+01 0.63733636331E+01 0.65223019925E+01
 0.65768039511E+01 0.65223019925E+01 0.63733636331E+01 0.61721323059E+01 0.59862346418E+01
 0.59116033073E+01 0.60842495756E+01 0.67009927141E+01 0.80431544537E+01 0.10487422283E+02
 0.14477627182E+02 0.20486979355E+02 0.28908308362E+02 0.39752559032E+02 0.52506059120E+02
 0.66165621200E+02 0.79444444591E+02 0.91063118037E+02 0.99995628961E+02 0.10557671763E+03
 0.80853840267E+02 0.79269397492E+02 0.74651676984E+02 0.67416873898E+02 0.58265632723E+02
 0.48130566980E+02 0.38037790831E+02 0.28908308362E+02 0.21372751583E+02 0.15675940066E+02
 0.11706986668E+02 0.91865607745E+01 0.78006143664E+01 0.72334875473E+01 0.72155660949E+01
 0.75348978585E+01 0.80276895027E+01 0.85635225724E+01 0.90350690561E+01 0.93566307295E+01
 0.94706618801E+01 0.93566307295E+01 0.90350690561E+01 0.85635225724E+01 0.80276895027E+01
 0.75348978585E+01 0.72155660949E+01 0.72334875473E+01 0.78006143664E+01 0.91865607745E+01
 0.11706986668E+02 0.15675940066E+02 0.21372751583E+02 0.28908308362E+02 0.38037790831E+02
 0.48130566980E+02 0.58265632723E+02 0.67416873898E+02 0.74651676984E+02 0.79269397492E+02
 0.56803355357E+02 0.55614321525E+02 0.52181159130E+02 0.46894448696E+02 0.40359673528E+02
 0.33311499775E+02 0.26486814956E+02 0.20486979355E+02 0.15675940066E+02 0.12151780085E+02
 0.98391812822E+01 0.85821687402E+01 0.81704465359E+01 0.83887771746E+01 0.90428535427E+01
 0.99639944864E+01 0.11001841654E+02 0.12014677880E+02 0.12866384395E+02 0.13435718431E+02
 0.13636071865E+02 0.13435718431E+02 0.12866384395E+02 0.12014677880E+02 0.11001841654E+02
 0.99639944864E+01 0.90428535427E+01 0.83887771746E+01 0.81704465359E+01 0.85821687402E+01
 0.98391812822E+01 0.12151780085E+02 0.15675940066E+02 0.20486979355E+02 0.26486814956E+02
 0.33311499775E+02 0.40359673528E+02 0.46894448696E+02 0.52181159130E+02 0.55614321525E+02
 0.37502118279E+02 0.36701500722E+02 0.34408066764E+02 0.30927945588E+02 0.26710002686E+02
 0.22263520739E+02 0.18065080437E+02 0.14477627182E+02 0.11706986668E+02 0.98391812822E+01
 0.88660582161E+01 0.87011600042E+01 0.92175352747E+01 0.10276853220E+02 0.11743656056E+02
 0.13482505273E+02 0.15341820645E+02 0.17137364448E+02 0.18653595814E+02 0.19674220984E+02
 0.20034991024E+02 0.19674220984E+02 0.18653595814E+02 0.17137364448E+02 0.15341820645E+02
 0.13482505273E+02 0.11743656056E+02 0.10276853220E+02 0.92175352747E+01 0.87011600042E+01
 0.88660582161E+01 0.98391812822E+01 0.11706986668E+02 0.14477627182E+02 0.18065080437E+02
 0.22263520739E+02 0.26710002686E+02 0.30927945588E+02 0.34408066764E+02 0.36701500722E+02
 0.23626565927E+02 0.23143198527E+02 0.21768076179E+02 0.19707877442E+02 0.17253297645E+02
 0.14718894843E+02 0.12388163249E+02 0.10487422283E+02 0.91865607745E+01 0.85821687402E+01
 0.87011600042E+01 0.95175781756E+01 0.10977432772E+02 0.13021499568E+02 0.15589570409E+02
 0.18593299190E+02 0.21864210108E+02 0.25109386042E+02 0.27918108918E+02 0.29842204306E+02
 0.30528424144E+02 0.29842204306E+02 0.27918108918E+02 0.25109386042E+02 0.21864210108E+02
 0.18593299190E+02 0.15589570409E+02 0.13021499568E+02 0.10977432772E+02 0.95175781756E+01
 0.87011600042E+01 0.85821687402E+01 0.91865607745E+01 0.10487422283E+02 0.12388163249E+02
 0.14718894843E+02 0.17253297645E+02 0.19707877442E+02 0.21768076179E+02 0.23143198527E+02
 0.14564077516E+02 0.14302407399E+02 0.13562711330E+02 0.12467022670E+02 0.11182308580E+02
 0.98944221861E+01 0.87901423998E+01 0.80431544537E+01 0.78006143664E+01 0.81704465359E+01
 0.92175352747E+01 0.10977432772E+02 0.13486298660E+02 0.16806223908E+02 0.21008577137E+02
 0.26088477983E+02 0.31831619033E+02 0.37712485739E+02 0.42917763078E+02 0.46532538911E+02
 0.47829885255E+02 0.46532538911E+02 0.42917763078E+02 0.37712485739E+02 0.31831619033E+02
 0.26088477983E+02 0.21008577137E+02 0.16806223908E+02 0.13486298660E+02 0.10977432772E+02
 0.92175352747E+01 0.81704465359E+01 0.78006143664E+01 0.80431544537E+01 0.87901423998E+01
 0.98944221861E+01 0.11182308580E+02 0.12467022670E+02 0.13562711330E+02 0.14302407399E+02
 0.90293161944E+01 0.89030951255E+01 0.85520437158E+01 0.80473409012E+01 0.74843460414E+01
 0.69775859914E+01 0.66651104383E+01 0.67009927141E+01 0.72334875473E+01 0.83887771746E+01
 0.10276853220E+02 0.13021499568E+02 0.16806223908E+02 0.21903636207E+02 0.28617865591E+02
 0.37082906055E+02 0.46971778401E+02 0.57303208789E+02 0.66548066428E+02 0.73065359238E+02
 0.75433580118E+02 0.73065359238E+02 0.66548066428E+02 0.57303208789E+02 0.46971778401E+02
 0.37082906055E+02 0.28617865591E+02 0.21903636207E+02 0.16806223908E+02 0.13021499568E+02
 0.10276853220E+02 0.83887771746E+01 0.72334875473E+01 0.67009927141E+01 0.66651104383E+01
 0.69775859914E+01 0.74843460414E+01 0.80473409012E+01 0.85520437158E+01 0.89030951255E+01
 0.58091894067E+01 0.57600493297E+01 0.56350487524E+01 0.54814777815E+01 0.53497133463E+01
 0.53141246772E+01 0.55034919346E+01 0.60842495756E+01 0.72155660949E+01 0.90428535427E+01
 0.11743656056E+02 0.15589570409E+02 0.21008577137E+02 0.28617865591E+02 0.39094733316E+02
 0.52756558991E+02 0.69022194980E+02 0.86629872589E+02 0.10319912674E+03 0.11522407863E+03
 0.11963486414E+03 0.11522407863E+03 0.10319912674E+03 0.86629872589E+02 0.69022194980E+02
 0.52756558991E+02 0.39094733316E+02 0.28617865591E+02 0.21008577137E+02 0.15589570409E+02
 0.11743656056E+02 0.90428535427E+01 0.72155660949E+01 0.60842495756E+01 0.55034919346E+01
 0.53141246772E+01 0.53497133463E+01 0.54814777815E+01 0.56350487524E+01 0.57600493297E+01
 0.40193670136E+01 0.40077408805E+01 0.40025376718E+01 0.40499146189E+01 0.41706366637E+01
 0.44147492089E+01 0.49283536608E+01 0.59116033073E+01 0.75348978585E+01 0.99639944864E+01
 0.13482505273E+02 0.18593299190E+02 0.26088477983E+02 0.37082906055E+02 0.52756558991E+02
 0.73650580502E+02 0.99941223846E+02 0.12972197998E+03 0.15786426994E+03 0.17806209930E+03
 0.18540056638E+03 0.17806209930E+03 0.15786426994E+03 0.12972197998E+03 0.99941223846E+02
 0.73650580502E+02 0.52756558991E+02 0.37082906055E+02 0.26088477983E+02 0.18593299190E+02
 0.13482505273E+02 0.99639944864E+01 0.75348978585E+01 0.59116033073E+01 0.49283536608E+01
 0.44147492089E+01 0.41706366637E+01 0.40499146189E+01 0.40025376718E+01 0.40077408805E+01
 0.30547193207E+01 0.30555745079E+01 0.31065024365E+01 0.32704536938E+01 0.35440012731E+01
 0.39567599339E+01 0.46884352172E+01 0.59862346418E+01 0.80276895027E+01 0.11001841654E+02
 0.15341820645E+02 0.21864210108E+02 0.31831619033E+02 0.46971778401E+02 0.69022194980E+02
 0.99941223846E+02 0.14043602101E+03 0.18583932014E+03 0.22742262353E+03 0.25630770367E+03
 0.26659050109E+03 0.25630770367E+03 0.22742262353E+03 0.18583932014E+03 0.14043602101E+03
 0.99941223846E+02 0.69022194980E+02 0.46971778401E+02 0.31831619033E+02 0.21864210108E+02
 0.15341820645E+02 0.11001841654E+02 0.80276895027E+01 0.59862346418E+01 0.46884352172E+01
 0.39567599339E+01 0.35440012731E+01 0.32704536938E+01 0.31065024365E+01 0.30555745079E+01
 0.25474917862E+01 0.25465804759E+01 0.26185432717E+01 0.28541129938E+01 0.32263727434E+01
 0.37432969803E+01 0.46253540976E+01 0.61721323059E+01 0.85635225724E+01 0.12014677880E+02
 0.17137364448E+02 0.25109386042E+02 0.37712485739E+02 0.57303208789E+02 0.86629872589E+02
 0.12972197998E+03 0.18583932014E+03 0.24650140388E+03 0.29940037124E+03 0.33443858389E+03
 0.34654038741E+03 0.33443858389E+03 0.29940037124E+03 0.24650140388E+03 0.18583932014E+03
 0.12972197998E+03 0.86629872589E+02 0.57303208789E+02 0.37712485739E+02 0.25109386042E+02
 0.17137364448E+02 0.12014677880E+02 0.85635225724E+01 0.61721323059E+01 0.46253540976E+01
 0.37432969803E+01 0.32263727434E+01 0.28541129938E+01 0.26185432717E+01 0.25465804759E+01
 0.22907851472E+01 0.22820806401E+01 0.23581081073E+01 0.26395365879E+01 0.30773983713E+01
 0.36580571248E+01 0.46407212700E+01 0.63733636331E+01 0.90350690561E+01 0.12866384395E+02
 0.18653595814E+02 0.27918108918E+02 0.42917763078E+02 0.66548066428E+02 0.10319912674E+03
 0.15786426994E+03 0.22742262353E+03 0.29940037124E+03 0.35873421729E+03 0.39580478715E+03
 0.40810568676E+03 0.39580478715E+03 0.35873421729E+03 0.29940037124E+03 0.22742262353E+03
 0.15786426994E+03 0.10319912674E+03 0.66548066428E+02 0.42917763078E+02 0.27918108918E+02
 0.18653595814E+02 0.12866384395E+02 0.90350690561E+01 0.63733636331E+01 0.46407212700E+01
 0.36580571248E+01 0.30773983713E+01 0.26395365879E+01 0.23581081073E+01 0.22820806401E+01
 0.21733690517E+01 0.21571725500E+01 0.22315022553E+01 0.25398379167E+01 0.30168399425E+01
 0.36323289443E+01 0.46733398414E+01 0.65223019925E+01 0.93566307295E+01 0.13435718431E+02
 0.19674220984E+02 0.29842204306E+02 0.46532538911E+02 0.73065359238E+02 0.11522407863E+03
 0.17806209930E+03 0.25630770367E+03 0.33443858389E+03 0.39580478715E+03 0.43207896394E+03
 0.44362319254E+03 0.43207896394E+03 0.39580478715E+03 0.33443858389E+03 0.25630770367E+03
 0.17806209930E+03 0.11522407863E+03 0.73065359238E+02 0.46532538911E+02 0.29842204306E+02
 0.19674220984E+02 0.13435718431E+02 0.93566307295E+01 0.65223019925E+01 0.46733398414E+01
 0.36323289443E+01 0.30168399425E+01 0.25398379167E+01 0.22315022553E+01 0.21571725500E+01
 0.21399028352E+01 0.21207121457E+01 0.21938054718E+01 0.25111692711E+01 0.30013587258E+01
 0.36279522856E+01 0.46881165986E+01 0.65768039511E+01 0.94706618801E+01 0.13636071865E+02
 0.20034991024E+02 0.30528424144E+02 0.47829885255E+02 0.75433580118E+02 0.11963486414E+03
 0.18540056638E+03 0.26659050109E+03 0.34654038741E+03 0.40810568676E+03 0.44362319254E+03
 0.45470654554E+03 0.44362319254E+03 0.40810568676E+03 0.34654038741E+03 0.26659050109E+03
 0.18540056638E+03 0.11963486414E+03 0.75433580118E+02 0.47829885255E+02 0.30528424144E+02
 0.20034991024E+02 0.13636071865E+02 0.94706618801E+01 0.65768039511E+01 0.46881165986E+01
 0.36279522856E+01 0.30013587258E+01 0.25111692711E+01 0.21938054718E+01 0.21207121457E+01
 0.21733690517E+01 0.21571725500E+01 0.22315022553E+01 0.25398379167E+01 0.30168399425E+01
 0.36323289443E+01 0.46733398414E+01 0.65223019925E+01 0.93566307295E+01 0.13435718431E+02
 0.19674220984E+02 0.29842204306E+02 0.46532538911E+02 0.73065359238E+02 0.11522407863E+03
 0.17806209930E+03 0.25630770367E+03 0.33443858389E+03 0.39580478715E+03 0.43207896394E+03
 0.44362319254E+03 0.43207896394E+03 0.39580478715E+03 0.33443858389E+03 0.25630770367E+03
 0.17806209930E+03 0.11522407863E+03 0.73065359238E+02 0.46532538911E+02 0.29842204306E+02
 0.19674220984E+02 0.13435718431E+02 0.93566307295E+01 0.65223019925E+01 0.46733398414E+01
 0.36323289443E+01 0.30168399425E+01 0.25398379167E+01 0.22315022553E+01 0.21571725500E+01
 0.22907851472E+01 0.22820806401E+01 0.23581081073E+01 0.26395365879E+01 0.30773983713E+01
 0.36580571248E+01 0.46407212700E+01 0.63733636331E+01 0.90350690561E+01 0.12866384395E+02
 0.18653595814E+02 0.27918108918E+02 0.42917763078E+02 0.66548066428E+02 0.10319912674E+03
 0.15786426994E+03 0.22742262353E+03 0.29940037124E+03 0.35873421729E+03 0.39580478715E+03
 0.40810568676E+03 0.39580478715E+03 0.35873421729E+03 0.29940037124E+03 0.22742262353E+03
 0.15786426994E+03 0.10319912674E+03 0.66548066428E+02 0.42917763078E+02 0.27918108918E+02
 0.18653595814E+02 0.12866384395E+02 0.90350690561E+01 0.63733636331E+01 0.46407212700E+01
 0.36580571248E+01 0.30773983713E+01 0.26395365879E+01 0.23581081073E+01 0.22820806401E+01
 0.25474917862E+01 0.25465804759E+01 0.26185432717E+01 0.28541129938E+01 0.32263727434E+01
 0.37432969803E+01 0.46253540976E+01 0.61721323059E+01 0.85635225724E+01 0.12014677880E+02
 0.17137364448E+02 0.25109386042E+02 0.37712485739E+02 0.57303208789E+02 0.86629872589E+02
 0.12972197998E+03 0.18583932014E+03 0.24650140388E+03 0.29940037124E+03 0.33443858389E+03
 0.34654038741E+03 0.33443858389E+03 0.29940037124E+03 0.24650140388E+03 0.18583932014E+03
 0.12972197998E+03 0.86629872589E+02 0.57303208789E+02 0.37712485739E+02 0.25109386042E+02
 0.17137364448E+02 0.12014677880E+02 0.85635225724E+01 0.61721323059E+01 0.46253540976E+01
 0.37432969803E+01 0.32263727434E+01 0.28541129938E+01 0.26185432717E+01 0.25465804759E+01
 0.30547193207E+01 0.30555745079E+01 0.31065024365E+01 0.32704536938E+01 0.35440012731E+01
 0.39567599339E+01 0.46884352172E+01 0.59862346418E+01 0.80276895027E+01 0.11001841654E+02
 0.15341820645E+02 0.21864210108E+02 0.31831619033E+02 0.46971778401E+02 0.69022194980E+02
 0.99941223846E+02 0.14043602101E+03 0.18583932014E+03 0.22742262353E+03 0.25630770367E+03
 0.26659050109E+03 0.25630770367E+03 0.22742262353E+03 0.18583932014E+03 0.14043602101E+03
 0.99941223846E+02 0.69022194980E+02 0.46971778401E+02 0.31831619033E+02 0.21864210108E+02
 0.15341820645E+02 0.11001841654E+02 0.80276895027E+01 0.59862346418E+01 0.46884352172E+01
 0.39567599339E+01 0.35440012731E+01 0.32704536938E+01 0.31065024365E+01 0.30555745079E+01
 0.40193670136E+01 0.40077408805E+01 0.40025376718E+01 0.40499146189E+01 0.41706366637E+01
 0.44147492089E+01 0.49283536608E+01 0.59116033073E+01 0.75348978585E+01 0.99639944864E+01
 0.13482505273E+02 0.18593299190E+02 0.26088477983E+02 0.37082906055E+02 0.52756558991E+02
 0.73650580502E+02 0.99941223846E+02 0.12972197998E+03 0.15786426994E+03 0.17806209930E+03
 0.18540056638E+03 0.17806209930E+03 0.15786426994E+03 0.12972197998E+03 0.99941223846E+02
 0.73650580502E+02 0.52756558991E+02 0.37082906055E+02 0.26088477983E+02 0.18593299190E+02
 0.13482505273E+02 0.99639944864E+01 0.75348978585E+01 0.59116033073E+01 0.49283536608E+01
 0.44147492089E+01 0.41706366637E+01 0.40499146189E+01 0.40025376718E+01 0.40077408805E+01
 0.58091894067E+01 0.57600493297E+01 0.56350487524E+01 0.54814777815E+01 0.53497133463E+01
 0.53141246772E+01 0.55034919346E+01 0.60842495756E+01 0.72155660949E+01 0.90428535427E+01
 0.11743656056E+02 0.15589570409E+02 0.21008577137E+02 0.28617865591E+02 0.39094733316E+02
 0.52756558991E+02 0.69022194980E+02 0.86629872589E+02 0.10319912674E+03 0.11522407863E+03
 0.11963486414E+03 0.11522407863E+03 0.10319912674E+03 0.86629872589E+02 0.69022194980E+02
 0.52756558991E+02 0.39094733316E+02 0.28617865591E+02 0.21008577137E+02 0.15589570409E+02
 0.11743656056E+02 0.90428535427E+01 0.72155660949E+01 0.60842495756E+01 0.55034919346E+01
 0.53141246772E+01 0.53497133463E+01 0.54814777815E+01 0.56350487524E+01 0.57600493297E+01
 0.90293161944E+01 0.89030951255E+01 0.85520437158E+01 0.80473409012E+01 0.74843460414E+01
 0.69775859914E+01 0.66651104383E+01 0.67009927141E+01 0.72334875473E+01 0.83887771746E+01
 0.10276853220E+02 0.13021499568E+02 0.16806223908E+02 0.21903636207E+02 0.28617865591E+02
 0.37082906055E+02 0.46971778401E+02 0.57303208789E+02 0.66548066428E+02 0.73065359238E+02
 0.75433580118E+02 0.73065359238E+02 0.66548066428E+02 0.57303208789E+02 0.46971778401E+02
 0.37082906055E+02 0.28617865591E+02 0.21903636207E+02 0.16806223908E+02 0.13021499568E+02
 0.10276853220E+02 0.83887771746E+01 0.72334875473E+01 0.67009927141E+01 0.66651104383E+01
 0.69775859914E+01 0.74843460414E+01 0.80473409012E+01 0.85520437158E+01 0.89030951255E+01
 0.14564077516E+02 0.14302407399E+02 0.13562711330E+02 0.12467022670E+02 0.11182308580E+02
 0.98944221861E+01 0.87901423998E+01 0.80431544537E+01 0.78006143664E+01 0.81704465359E+01
 0.92175352747E+01 0.10977432772E+02 0.13486298660E+02 0.16806223908E+02 0.21008577137E+02
 0.26088477983E+02 0.31831619033E+02 0.37712485739E+02 0.42917763078E+02 0.46532538911E+02
 0.47829885255E+02 0.46532538911E+02 0.42917763078E+02 0.37712485739E+02 0.31831619033E+02
 0.26088477983E+02 0.21008577137E+02 0.16806223908E+02 0.13486298660E+02 0.10977432772E+02
 0.92175352747E+01 0.81704465359E+01 0.78006143664E+01 0.80431544537E+01 0.87901423998E+01
 0.98944221861E+01 0.11182308580E+02 0.12467022670E+02 0.13562711330E+02 0.14302407399E+02
 0.23626565927E+02 0.23143198527E+02 0.21768076179E+02 0.19707877442E+02 0.17253297645E+02
 0.14718894843E+02 0.12388163249E+02 0.10487422283E+02 0.91865607745E+01 0.85821687402E+01
 0.87011600042E+01 0.95175781756E+01 0.10977432772E+02 0.13021499568E+02 0.15589570409E+02
 0.18593299190E+02 0.21864210108E+02 0.25109386042E+02 0.27918108918E+02 0.29842204306E+02
 0.30528424144E+02 0.29842204306E+02 0.27918108918E+02 0.25109386042E+02 0.21864210108E+02
 0.18593299190E+02 0.15589570409E+02 0.13021499568E+02 0.10977432772E+02 0.95175781756E+01
 0.87011600042E+01 0.85821687402E+01 0.91865607745E+01 0.10487422283E+02 0.12388163249E+02
 0.14718894843E+02 0.17253297645E+02 0.19707877442E+02 0.21768076179E+02 0.23143198527E+02
 0.37502118279E+02 0.36701500722E+02 0.34408066764E+02 0.30927945588E+02 0.26710002686E+02
 0.22263520739E+02 0.18065080437E+02 0.14477627182E+02 0.11706986668E+02 0.98391812822E+01
 0.88660582161E+01 0.87011600042E+01 0.92175352747E+01 0.10276853220E+02 0.11743656056E+02
 0.13482505273E+02 0.15341820645E+02 0.17137364448E+02 0.18653595814E+02 0.19674220984E+02
 0.20034991024E+02 0.19674220984E+02 0.18653595814E+02 0.17137364448E+02 0.15341820645E+02
 0.13482505273E+02 0.11743656056E+02 0.10276853220E+02 0.92175352747E+01 0.87011600042E+01
 0.88660582161E+01 0.98391812822E+01 0.11706986668E+02 0.14477627182E+02 0.18065080437E+02
 0.22263520739E+02 0.26710002686E+02 0.30927945588E+02 0.34408066764E+02 0.36701500722E+02
 0.56803355357E+02 0.55614321525E+02 0.52181159130E+02 0.46894448696E+02 0.40359673528E+02
 0.33311499775E+02 0.26486814956E+02 0.20486979355E+02 0.15675940066E+02 0.12151780085E+02
 0.98391812822E+01 0.85821687402E+01 0.81704465359E+01 0.83887771746E+01 0.90428535427E+01
 0.99639944864E+01 0.11001841654E+02 0.12014677880E+02 0.12866384395E+02 0.13435718431E+02
 0.13636071865E+02 0.13435718431E+02 0.12866384395E+02 0.12014677880E+02 0.11001841654E+02
 0.99639944864E+01 0.90428535427E+01 0.83887771746E+01 0.81704465359E+01 0.85821687402E+01
 0.98391812822E+01 0.12151780085E+02 0.15675940066E+02 0.20486979355E+02 0.26486814956E+02
 0.33311499775E+02 0.40359673528E+02 0.46894448696E+02 0.52181159130E+02 0.55614321525E+02
 0.80853840267E+02 0.79269397492E+02 0.74651676984E+02 0.67416873898E+02 0.58265632723E+02
 0.48130566980E+02 0.38037790831E+02 0.28908308362E+02 0.21372751583E+02 0.15675940066E+02
 0.11706986668E+02 0.91865607745E+01 0.78006143664E+01 0.72334875473E+01 0.72155660949E+01
 0.75348978585E+01 0.80276895027E+01 0.85635225724E+01 0.90350690561E+01 0.93566307295E+01
 0.94706618801E+01 0.93566307295E+01 0.90350690561E+01 0.85635225724E+01 0.80276895027E+01
 0.75348978585E+01 0.72155660949E+01 0.72334875473E+01 0.78006143664E+01 0.91865607745E+01
 0.11706986668E+02 0.15675940066E+02 0.21372751583E+02 0.28908308362E+02 0.38037790831E+02
 0.48130566980E+02 0.58265632723E+02 0.67416873898E+02 0.74651676984E+02 0.79269397492E+02
 0.10746955850E+03 0.10557671763E+03 0.99995628961E+02 0.91063118037E+02 0.79444444591E+02
 0.66165621200E+02 0.52506059120E+02 0.39752559032E+02 0.28908308362E+02 0.20486979355E+02
 0.14477627182E+02 0.10487422283E+02 0.80431544537E+01 0.67009927141E+01 0.60842495756E+01
 0.59116033073E+01 0.59862346418E+01 0.61721323059E+01 0.63733636331E+01 0.65223019925E+01
 0.65768039511E+01 0.65223019925E+01 0.63733636331E+01 0.61721323059E+01 0.59862346418E+01
 0.59116033073E+01 0.60842495756E+01 0.67009927141E+01 0.80431544537E+01 0.10487422283E+02
 0.14477627182E+02 0.20486979355E+02 0.28908308362E+02 0.39752559032E+02 0.52506059120E+02
 0.66165621200E+02 0.79444444591E+02 0.91063118037E+02 0.99995628961E+02 0.10557671763E+03
 0.13340102268E+03 0.13138090447E+03 0.12533008895E+03 0.11537030930E+03 0.10194856706E+03
 0.86010872435E+02 0.68982381748E+02 0.52506059120E+02 0.38037790831E+02 0.26486814956E+02
 0.18065080437E+02 0.12388163249E+02 0.87901423998E+01 0.66651104383E+01 0.55034919346E+01
 0.49283536608E+01 0.46884352172E+01 0.46253540976E+01 0.46407212700E+01 0.46733398414E+01
 0.46881165986E+01 0.46733398414E+01 0.46407212700E+01 0.46253540976E+01 0.46884352172E+01
 0.49283536608E+01 0.55034919346E+01 0.66651104383E+01 0.87901423998E+01 0.12388163249E+02
 0.18065080437E+02 0.26486814956E+02 0.38037790831E+02 0.52506059120E+02 0.68982381748E+02
 0.86010872435E+02 0.10194856706E+03 0.11537030930E+03 0.12533008895E+03 0.13138090447E+03
 0.15535625159E+03 0.15344584746E+03 0.14758794895E+03 0.13755369150E+03 0.12337860408E+03
 0.10572603238E+03 0.86010872435E+02 0.66165621200E+02 0.48130566980E+02 0.33311499775E+02
 0.22263520739E+02 0.14718894843E+02 0.98944221861E+01 0.69775859914E+01 0.53141246772E+01
 0.44147492089E+01 0.39567599339E+01 0.37432969803E+01 0.36580571248E+01 0.36323289443E+01
 0.36279522856E+01 0.36323289443E+01 0.36580571248E+01 0.37432969803E+01 0.39567599339E+01
 0.44147492089E+01 0.53141246772E+01 0.69775859914E+01 0.98944221861E+01 0.14718894843E+02
 0.22263520739E+02 0.33311499775E+02 0.48130566980E+02 0.66165621200E+02 0.86010872435E+02
 0.10572603238E+03 0.12337860408E+03 0.13755369150E+03 0.14758794895E+03 0.15344584746E+03
 0.17115001796E+03 0.16957533532E+03 0.16455435496E+03 0.15540921000E+03 0.14161467105E+03
 0.12337860408E+03 0.10194856706E+03 0.79444444591E+02 0.58265632723E+02 0.40359673528E+02
 0.26710002686E+02 0.17253297645E+02 0.11182308580E+02 0.74843460414E+01 0.53497133463E+01
 0.41706366637E+01 0.35440012731E+01 0.32263727434E+01 0.30773983713E+01 0.30168399425E+01
 0.30013587258E+01 0.30168399425E+01 0.30773983713E+01 0.32263727434E+01 0.35440012731E+01
 0.41706366637E+01 0.53497133463E+01 0.74843460414E+01 0.11182308580E+02 0.17253297645E+02
 0.26710002686E+02 0.40359673528E+02 0.58265632723E+02 0.79444444591E+02 0.10194856706E+03
 0.12337860408E+03 0.14161467105E+03 0.15540921000E+03 0.16455435496E+03 0.16957533532E+03
 0.18040536033E+03 0.17931021782E+03 0.17554844004E+03 0.16796268175E+03 0.15540921000E+03
 0.13755369150E+03 0.11537030930E+03 0.91063118037E+02 0.67416873898E+02 0.46894448696E+02
 0.30927945588E+02 0.19707877442E+02 0.12467022670E+02 0.80473409012E+01 0.54814777815E+01
 0.40499146189E+01 0.32704536938E+01 0.28541129938E+01 0.26395365879E+01 0.25398379167E+01
 0.25111692711E+01 0.25398379167E+01 0.26395365879E+01 0.28541129938E+01 0.32704536938E+01
 0.40499146189E+01 0.54814777815E+01 0.80473409012E+01 0.12467022670E+02 0.19707877442E+02
 0.30927945588E+02 0.46894448696E+02 0.67416873898E+02 0.91063118037E+02 0.11537030930E+03
 0.13755369150E+03 0.15540921000E+03 0.16796268175E+03 0.17554844004E+03 0.17931021782E+03
 0.18446045939E+03 0.18385783525E+03 0.18141511262E+03 0.17554844004E+03 0.16455435496E+03
 0.14758794895E+03 0.12533008895E+03 0.99995628961E+02 0.74651676984E+02 0.52181159130E+02
 0.34408066764E+02 0.21768076179E+02 0.13562711330E+02 0.85520437158E+01 0.56350487524E+01
 0.40025376718E+01 0.31065024365E+01 0.26185432717E+01 0.23581081073E+01 0.22315022553E+01
 0.21938054718E+01 0.22315022553E+01 0.23581081073E+01 0.26185432717E+01 0.31065024365E+01
 0.40025376718E+01 0.56350487524E+01 0.85520437158E+01 0.13562711330E+02 0.21768076179E+02
 0.34408066764E+02 0.52181159130E+02 0.74651676984E+02 0.99995628961E+02 0.12533008895E+03
 0.14758794895E+03 0.16455435496E+03 0.17554844004E+03 0.18141511262E+03 0.18385783525E+03
 0.18554731179E+03 0.18531089011E+03 0.18385783525E+03 0.17931021782E+03 0.16957533532E+03
 0.15344584746E+03 0.13138090447E+03 0.10557671763E+03 0.79269397492E+02 0.55614321525E+02
 0.36701500722E+02 0.23143198527E+02 0.14302407399E+02 0.89030951255E+01 0.57600493297E+01
 0.40077408805E+01 0.30555745079E+01 0.25465804759E+01 0.22820806401E+01 0.21571725500E+01
 0.21207121457E+01 0.21571725500E+01 0.22820806401E+01 0.25465804759E+01 0.30555745079E+01
 0.40077408805E+01 0.57600493297E+01 0.89030951255E+01 0.14302407399E+02 0.23143198527E+02
 0.36701500722E+02 0.55614321525E+02 0.79269397492E+02 0.10557671763E+03 0.13138090447E+03
 0.15344584746E+03 0.16957533532E+03 0.17931021782E+03 0.18385783525E+03 0.18531089011E+03
 0.18554731179E+03 0.18531089011E+03 0.18385783525E+03 0.17931021782E+03 0.16957533532E+03
 0.15344584746E+03 0.13138090447E+03 0.10557671763E+03 0.79269397492E+02 0.55614321525E+02
 0.36701500722E+02 0.23143198527E+02 0.14302407399E+02 0.89030951255E+01 0.57600493297E+01
 0.40077408805E+01 0.30555745079E+01 0.25465804759E+01 0.22820806401E+01 0.21571725500E+01
 0.21207121457E+01 0.21571725500E+01 0.22820806401E+01 0.25465804759E+01 0.30555745079E+01