   5   5   1   0
  0.1138240E+02  0.3846520E-09  0.3846520E-09  0.3846520E-09  0.5000000E-15
  1.000000000000000E-004
  CAR 
 SrVO3                                   
      9.00000000      6.00000000  301      5.34449999      1.00000000
      6.000  0.3481E+04  0.3481E+02
      6.010  0.4087E+01  0.3485E+02
      6.020  0.3987E+01  0.3489E+02
      6.030  0.3913E+01  0.3493E+02
      6.040  0.3869E+01  0.3497E+02
      6.050  0.3860E+01  0.3500E+02
      6.060  0.3889E+01  0.3504E+02
      6.070  0.3958E+01  0.3508E+02
      6.080  0.4067E+01  0.3512E+02
      6.090  0.4217E+01  0.3517E+02
      6.100  0.4403E+01  0.3521E+02
      6.110  0.4623E+01  0.3526E+02
      6.120  0.4871E+01  0.3530E+02
      6.130  0.5142E+01  0.3536E+02
      6.140  0.5429E+01  0.3541E+02
      6.150  0.5725E+01  0.3547E+02
      6.160  0.6021E+01  0.3553E+02
      6.170  0.6311E+01  0.3559E+02
      6.180  0.6586E+01  0.3566E+02
      6.190  0.6839E+01  0.3572E+02
      6.200  0.7065E+01  0.3580E+02
      6.210  0.7258E+01  0.3587E+02
      6.220  0.7412E+01  0.3594E+02
      6.230  0.7526E+01  0.3602E+02
      6.240  0.7596E+01  0.3609E+02
      6.250  0.7623E+01  0.3617E+02
      6.260  0.7606E+01  0.3625E+02
      6.270  0.7547E+01  0.3632E+02
      6.280  0.7448E+01  0.3640E+02
      6.290  0.7314E+01  0.3647E+02
      6.300  0.7147E+01  0.3654E+02
      6.310  0.6954E+01  0.3661E+02
      6.320  0.6738E+01  0.3668E+02
      6.330  0.6506E+01  0.3674E+02
      6.340  0.6262E+01  0.3681E+02
      6.350  0.6012E+01  0.3687E+02
      6.360  0.5759E+01  0.3692E+02
      6.370  0.5509E+01  0.3698E+02
      6.380  0.5266E+01  0.3703E+02
      6.390  0.5031E+01  0.3708E+02
      6.400  0.4808E+01  0.3713E+02
      6.410  0.4598E+01  0.3717E+02
      6.420  0.4402E+01  0.3722E+02
      6.430  0.4222E+01  0.3726E+02
      6.440  0.4056E+01  0.3730E+02
      6.450  0.3905E+01  0.3734E+02
      6.460  0.3768E+01  0.3738E+02
      6.470  0.3643E+01  0.3741E+02
      6.480  0.3528E+01  0.3745E+02
      6.490  0.3423E+01  0.3748E+02
      6.500  0.3326E+01  0.3752E+02
      6.510  0.3236E+01  0.3755E+02
      6.520  0.3150E+01  0.3758E+02
      6.530  0.3068E+01  0.3761E+02
      6.540  0.2988E+01  0.3764E+02
      6.550  0.2911E+01  0.3767E+02
      6.560  0.2835E+01  0.3770E+02
      6.570  0.2760E+01  0.3773E+02
      6.580  0.2686E+01  0.3775E+02
      6.590  0.2613E+01  0.3778E+02
      6.600  0.2542E+01  0.3781E+02
      6.610  0.2473E+01  0.3783E+02
      6.620  0.2406E+01  0.3785E+02
      6.630  0.2342E+01  0.3788E+02
      6.640  0.2281E+01  0.3790E+02
      6.650  0.2224E+01  0.3792E+02
      6.660  0.2170E+01  0.3794E+02
      6.670  0.2120E+01  0.3797E+02
      6.680  0.2073E+01  0.3799E+02
      6.690  0.2029E+01  0.3801E+02
      6.700  0.1986E+01  0.3803E+02
      6.710  0.1944E+01  0.3805E+02
      6.720  0.1903E+01  0.3806E+02
      6.730  0.1860E+01  0.3808E+02
      6.740  0.1814E+01  0.3810E+02
      6.750  0.1764E+01  0.3812E+02
      6.760  0.1710E+01  0.3814E+02
      6.770  0.1649E+01  0.3815E+02
      6.780  0.1582E+01  0.3817E+02
      6.790  0.1508E+01  0.3818E+02
      6.800  0.1426E+01  0.3820E+02
      6.810  0.1336E+01  0.3821E+02
      6.820  0.1240E+01  0.3822E+02
      6.830  0.1138E+01  0.3824E+02
      6.840  0.1031E+01  0.3825E+02
      6.850  0.9211E+00  0.3825E+02
      6.860  0.8100E+00  0.3826E+02
      6.870  0.6997E+00  0.3827E+02
      6.880  0.5925E+00  0.3828E+02
      6.890  0.4909E+00  0.3828E+02
      6.900  0.3972E+00  0.3828E+02
      6.910  0.3138E+00  0.3829E+02
      6.920  0.2429E+00  0.3829E+02
      6.930  0.1865E+00  0.3829E+02
      6.940  0.1463E+00  0.3829E+02
      6.950  0.1236E+00  0.3829E+02
      6.960  0.1194E+00  0.3830E+02
      6.970  0.1341E+00  0.3830E+02
      6.980  0.1679E+00  0.3830E+02
      6.990  0.2202E+00  0.3830E+02
      7.000  0.2900E+00  0.3830E+02
      7.010  0.3760E+00  0.3831E+02
      7.020  0.4762E+00  0.3831E+02
      7.030  0.5883E+00  0.3832E+02
      7.040  0.7098E+00  0.3833E+02
      7.050  0.8377E+00  0.3833E+02
      7.060  0.9689E+00  0.3834E+02
      7.070  0.1100E+01  0.3835E+02
      7.080  0.1228E+01  0.3837E+02
      7.090  0.1350E+01  0.3838E+02
      7.100  0.1463E+01  0.3840E+02
      7.110  0.1563E+01  0.3841E+02
      7.120  0.1649E+01  0.3843E+02
      7.130  0.1718E+01  0.3844E+02
      7.140  0.1770E+01  0.3846E+02
      7.150  0.1802E+01  0.3848E+02
      7.160  0.1815E+01  0.3850E+02
      7.170  0.1808E+01  0.3852E+02
      7.180  0.1782E+01  0.3853E+02
      7.190  0.1738E+01  0.3855E+02
      7.200  0.1677E+01  0.3857E+02
      7.210  0.1602E+01  0.3858E+02
      7.220  0.1515E+01  0.3860E+02
      7.230  0.1417E+01  0.3861E+02
      7.240  0.1313E+01  0.3863E+02
      7.250  0.1204E+01  0.3864E+02
      7.260  0.1093E+01  0.3865E+02
      7.270  0.9834E+00  0.3866E+02
      7.280  0.8773E+00  0.3867E+02
      7.290  0.7771E+00  0.3868E+02
      7.300  0.6848E+00  0.3868E+02
      7.310  0.6024E+00  0.3869E+02
      7.320  0.5311E+00  0.3869E+02
      7.330  0.4723E+00  0.3870E+02
      7.340  0.4266E+00  0.3870E+02
      7.350  0.3946E+00  0.3871E+02
      7.360  0.3764E+00  0.3871E+02
      7.370  0.3720E+00  0.3871E+02
      7.380  0.3810E+00  0.3872E+02
      7.390  0.4029E+00  0.3872E+02
      7.400  0.4369E+00  0.3873E+02
      7.410  0.4821E+00  0.3873E+02
      7.420  0.5375E+00  0.3874E+02
      7.430  0.6018E+00  0.3874E+02
      7.440  0.6739E+00  0.3875E+02
      7.450  0.7523E+00  0.3876E+02
      7.460  0.8356E+00  0.3877E+02
      7.470  0.9224E+00  0.3877E+02
      7.480  0.1011E+01  0.3879E+02
      7.490  0.1100E+01  0.3880E+02
      7.500  0.1188E+01  0.3881E+02
      7.510  0.1272E+01  0.3882E+02
      7.520  0.1352E+01  0.3883E+02
      7.530  0.1426E+01  0.3885E+02
      7.540  0.1492E+01  0.3886E+02
      7.550  0.1549E+01  0.3888E+02
      7.560  0.1596E+01  0.3889E+02
      7.570  0.1631E+01  0.3891E+02
      7.580  0.1654E+01  0.3893E+02
      7.590  0.1665E+01  0.3894E+02
      7.600  0.1663E+01  0.3896E+02
      7.610  0.1648E+01  0.3898E+02
      7.620  0.1622E+01  0.3899E+02
      7.630  0.1584E+01  0.3901E+02
      7.640  0.1536E+01  0.3902E+02
      7.650  0.1481E+01  0.3904E+02
      7.660  0.1418E+01  0.3905E+02
      7.670  0.1351E+01  0.3907E+02
      7.680  0.1281E+01  0.3908E+02
      7.690  0.1211E+01  0.3909E+02
      7.700  0.1143E+01  0.3910E+02
      7.710  0.1079E+01  0.3911E+02
      7.720  0.1021E+01  0.3912E+02
      7.730  0.9698E+00  0.3913E+02
      7.740  0.9276E+00  0.3914E+02
      7.750  0.8952E+00  0.3915E+02
      7.760  0.8728E+00  0.3916E+02
      7.770  0.8608E+00  0.3917E+02
      7.780  0.8587E+00  0.3918E+02
      7.790  0.8658E+00  0.3919E+02
      7.800  0.8810E+00  0.3920E+02
      7.810  0.9028E+00  0.3921E+02
      7.820  0.9297E+00  0.3921E+02
      7.830  0.9596E+00  0.3922E+02
      7.840  0.9908E+00  0.3923E+02
      7.850  0.1021E+01  0.3924E+02
      7.860  0.1049E+01  0.3925E+02
      7.870  0.1072E+01  0.3927E+02
      7.880  0.1089E+01  0.3928E+02
      7.890  0.1099E+01  0.3929E+02
      7.900  0.1100E+01  0.3930E+02
      7.910  0.1092E+01  0.3931E+02
      7.920  0.1074E+01  0.3932E+02
      7.930  0.1047E+01  0.3933E+02
      7.940  0.1010E+01  0.3934E+02
      7.950  0.9645E+00  0.3935E+02
      7.960  0.9111E+00  0.3936E+02
      7.970  0.8507E+00  0.3937E+02
      7.980  0.7846E+00  0.3938E+02
      7.990  0.7140E+00  0.3938E+02
      8.000  0.6403E+00  0.3939E+02
      8.010  0.5649E+00  0.3939E+02
      8.020  0.4891E+00  0.3940E+02
      8.030  0.4141E+00  0.3940E+02
      8.040  0.3411E+00  0.3941E+02
      8.050  0.2712E+00  0.3941E+02
      8.060  0.2051E+00  0.3941E+02
      8.070  0.1436E+00  0.3941E+02
      8.080  0.8736E-01  0.3941E+02
      8.090  0.3669E-01  0.3941E+02
      8.100 -0.8062E-02  0.3941E+02
      8.110 -0.4669E-01  0.3941E+02
      8.120 -0.7909E-01  0.3941E+02
      8.130 -0.1052E+00  0.3941E+02
      8.140 -0.1250E+00  0.3941E+02
      8.150 -0.1386E+00  0.3941E+02
      8.160 -0.1460E+00  0.3941E+02
      8.170 -0.1472E+00  0.3941E+02
      8.180 -0.1423E+00  0.3941E+02
      8.190 -0.1313E+00  0.3940E+02
      8.200 -0.1143E+00  0.3940E+02
      8.210 -0.9136E-01  0.3940E+02
      8.220 -0.6258E-01  0.3940E+02
      8.230 -0.2811E-01  0.3940E+02
      8.240  0.1182E-01  0.3940E+02
      8.250  0.5689E-01  0.3940E+02
      8.260  0.1067E+00  0.3940E+02
      8.270  0.1607E+00  0.3940E+02
      8.280  0.2182E+00  0.3941E+02
      8.290  0.2784E+00  0.3941E+02
      8.300  0.3405E+00  0.3941E+02
      8.310  0.4033E+00  0.3942E+02
      8.320  0.4657E+00  0.3942E+02
      8.330  0.5265E+00  0.3943E+02
      8.340  0.5844E+00  0.3943E+02
      8.350  0.6382E+00  0.3944E+02
      8.360  0.6867E+00  0.3945E+02
      8.370  0.7285E+00  0.3945E+02
      8.380  0.7628E+00  0.3946E+02
      8.390  0.7886E+00  0.3947E+02
      8.400  0.8051E+00  0.3948E+02
      8.410  0.8119E+00  0.3948E+02
      8.420  0.8086E+00  0.3949E+02
      8.430  0.7953E+00  0.3950E+02
      8.440  0.7721E+00  0.3951E+02
      8.450  0.7396E+00  0.3952E+02
      8.460  0.6985E+00  0.3952E+02
      8.470  0.6497E+00  0.3953E+02
      8.480  0.5944E+00  0.3954E+02
      8.490  0.5339E+00  0.3954E+02
      8.500  0.4697E+00  0.3955E+02
      8.510  0.4033E+00  0.3955E+02
      8.520  0.3363E+00  0.3955E+02
      8.530  0.2703E+00  0.3956E+02
      8.540  0.2069E+00  0.3956E+02
      8.550  0.1476E+00  0.3956E+02
      8.560  0.9387E-01  0.3956E+02
      8.570  0.4705E-01  0.3956E+02
      8.580  0.8264E-02  0.3956E+02
      8.590 -0.2148E-01  0.3956E+02
      8.600 -0.4138E-01  0.3956E+02
      8.610 -0.5085E-01  0.3956E+02
      8.620 -0.4947E-01  0.3956E+02
      8.630 -0.3710E-01  0.3956E+02
      8.640 -0.1378E-01  0.3956E+02
      8.650  0.2022E-01  0.3956E+02
      8.660  0.6440E-01  0.3956E+02
      8.670  0.1181E+00  0.3956E+02
      8.680  0.1803E+00  0.3956E+02
      8.690  0.2500E+00  0.3956E+02
      8.700  0.3259E+00  0.3957E+02
      8.710  0.4067E+00  0.3957E+02
      8.720  0.4907E+00  0.3958E+02
      8.730  0.5764E+00  0.3958E+02
      8.740  0.6622E+00  0.3959E+02
      8.750  0.7463E+00  0.3960E+02
      8.760  0.8271E+00  0.3960E+02
      8.770  0.9030E+00  0.3961E+02
      8.780  0.9725E+00  0.3962E+02
      8.790  0.1034E+01  0.3963E+02
      8.800  0.1087E+01  0.3964E+02
      8.810  0.1130E+01  0.3966E+02
      8.820  0.1162E+01  0.3967E+02
      8.830  0.1183E+01  0.3968E+02
      8.840  0.1192E+01  0.3969E+02
      8.850  0.1190E+01  0.3970E+02
      8.860  0.1176E+01  0.3972E+02
      8.870  0.1151E+01  0.3973E+02
      8.880  0.1117E+01  0.3974E+02
      8.890  0.1073E+01  0.3975E+02
      8.900  0.1021E+01  0.3976E+02
      8.910  0.9616E+00  0.3977E+02
      8.920  0.8967E+00  0.3978E+02
      8.930  0.8274E+00  0.3979E+02
      8.940  0.7550E+00  0.3979E+02
      8.950  0.6808E+00  0.3980E+02
      8.960  0.6063E+00  0.3981E+02
      8.970  0.5325E+00  0.3981E+02
      8.980  0.4606E+00  0.3982E+02
      8.990  0.3915E+00  0.3982E+02
      9.000  0.3261E+00  0.3982E+02
      9.00000000      6.00000000  301      5.34449999      1.00000000
      6.000  0.2000E+03  0.1932E+03  0.1932E+03  0.1932E+03  0.5179E+01  0.5179E+01  0.3563E+01  0.5179E+01  0.3563E+01
      6.010  0.3458E-02  0.2082E-02  0.2082E-02  0.2082E-02  0.2596E-02  0.2596E-02  0.1056E-01  0.2596E-02  0.1056E-01
      6.020  0.3422E-02  0.2165E-02  0.2165E-02  0.2165E-02  0.2427E-02  0.2427E-02  0.1048E-01  0.2427E-02  0.1048E-01
      6.030  0.3382E-02  0.2245E-02  0.2245E-02  0.2245E-02  0.2284E-02  0.2284E-02  0.1038E-01  0.2284E-02  0.1038E-01
      6.040  0.3344E-02  0.2320E-02  0.2320E-02  0.2320E-02  0.2171E-02  0.2171E-02  0.1028E-01  0.2171E-02  0.1028E-01
      6.050  0.3312E-02  0.2390E-02  0.2390E-02  0.2390E-02  0.2091E-02  0.2091E-02  0.1018E-01  0.2091E-02  0.1018E-01
      6.060  0.3293E-02  0.2455E-02  0.2455E-02  0.2455E-02  0.2047E-02  0.2047E-02  0.1011E-01  0.2047E-02  0.1011E-01
      6.070  0.3289E-02  0.2513E-02  0.2513E-02  0.2513E-02  0.2038E-02  0.2038E-02  0.1008E-01  0.2038E-02  0.1008E-01
      6.080  0.3306E-02  0.2565E-02  0.2565E-02  0.2565E-02  0.2066E-02  0.2066E-02  0.1010E-01  0.2066E-02  0.1010E-01
      6.090  0.3347E-02  0.2610E-02  0.2610E-02  0.2610E-02  0.2127E-02  0.2127E-02  0.1018E-01  0.2127E-02  0.1018E-01
      6.100  0.3414E-02  0.2651E-02  0.2651E-02  0.2651E-02  0.2219E-02  0.2219E-02  0.1033E-01  0.2219E-02  0.1033E-01
      6.110  0.3510E-02  0.2687E-02  0.2687E-02  0.2687E-02  0.2337E-02  0.2337E-02  0.1056E-01  0.2337E-02  0.1056E-01
      6.120  0.3634E-02  0.2719E-02  0.2719E-02  0.2719E-02  0.2478E-02  0.2478E-02  0.1087E-01  0.2478E-02  0.1087E-01
      6.130  0.3786E-02  0.2748E-02  0.2748E-02  0.2748E-02  0.2634E-02  0.2634E-02  0.1127E-01  0.2634E-02  0.1127E-01
      6.140  0.3965E-02  0.2777E-02  0.2777E-02  0.2777E-02  0.2800E-02  0.2800E-02  0.1174E-01  0.2800E-02  0.1174E-01
      6.150  0.4167E-02  0.2807E-02  0.2807E-02  0.2807E-02  0.2969E-02  0.2969E-02  0.1228E-01  0.2969E-02  0.1228E-01
      6.160  0.4390E-02  0.2839E-02  0.2839E-02  0.2839E-02  0.3135E-02  0.3135E-02  0.1289E-01  0.3135E-02  0.1289E-01
      6.170  0.4628E-02  0.2874E-02  0.2874E-02  0.2874E-02  0.3291E-02  0.3291E-02  0.1355E-01  0.3291E-02  0.1355E-01
      6.180  0.4877E-02  0.2915E-02  0.2915E-02  0.2915E-02  0.3431E-02  0.3431E-02  0.1425E-01  0.3431E-02  0.1425E-01
      6.190  0.5132E-02  0.2963E-02  0.2963E-02  0.2963E-02  0.3550E-02  0.3550E-02  0.1498E-01  0.3550E-02  0.1498E-01
      6.200  0.5386E-02  0.3018E-02  0.3018E-02  0.3018E-02  0.3643E-02  0.3643E-02  0.1572E-01  0.3643E-02  0.1572E-01
      6.210  0.5635E-02  0.3081E-02  0.3081E-02  0.3081E-02  0.3705E-02  0.3705E-02  0.1646E-01  0.3705E-02  0.1646E-01
      6.220  0.5874E-02  0.3153E-02  0.3153E-02  0.3153E-02  0.3736E-02  0.3736E-02  0.1718E-01  0.3736E-02  0.1718E-01
      6.230  0.6096E-02  0.3233E-02  0.3233E-02  0.3233E-02  0.3732E-02  0.3732E-02  0.1787E-01  0.3732E-02  0.1787E-01
      6.240  0.6299E-02  0.3320E-02  0.3320E-02  0.3320E-02  0.3693E-02  0.3693E-02  0.1852E-01  0.3693E-02  0.1852E-01
      6.250  0.6478E-02  0.3414E-02  0.3414E-02  0.3414E-02  0.3620E-02  0.3620E-02  0.1912E-01  0.3620E-02  0.1912E-01
      6.260  0.6631E-02  0.3513E-02  0.3513E-02  0.3513E-02  0.3515E-02  0.3515E-02  0.1966E-01  0.3515E-02  0.1966E-01
      6.270  0.6756E-02  0.3615E-02  0.3615E-02  0.3615E-02  0.3379E-02  0.3379E-02  0.2014E-01  0.3379E-02  0.2014E-01
      6.280  0.6852E-02  0.3718E-02  0.3718E-02  0.3718E-02  0.3217E-02  0.3217E-02  0.2054E-01  0.3217E-02  0.2054E-01
      6.290  0.6918E-02  0.3820E-02  0.3820E-02  0.3820E-02  0.3031E-02  0.3031E-02  0.2087E-01  0.3031E-02  0.2087E-01
      6.300  0.6956E-02  0.3919E-02  0.3919E-02  0.3919E-02  0.2827E-02  0.2827E-02  0.2112E-01  0.2827E-02  0.2112E-01
      6.310  0.6967E-02  0.4011E-02  0.4011E-02  0.4011E-02  0.2608E-02  0.2608E-02  0.2131E-01  0.2608E-02  0.2131E-01
      6.320  0.6952E-02  0.4095E-02  0.4095E-02  0.4095E-02  0.2380E-02  0.2380E-02  0.2142E-01  0.2380E-02  0.2142E-01
      6.330  0.6914E-02  0.4169E-02  0.4169E-02  0.4169E-02  0.2148E-02  0.2148E-02  0.2147E-01  0.2148E-02  0.2147E-01
      6.340  0.6856E-02  0.4231E-02  0.4231E-02  0.4231E-02  0.1915E-02  0.1915E-02  0.2146E-01  0.1915E-02  0.2146E-01
      6.350  0.6780E-02  0.4280E-02  0.4280E-02  0.4280E-02  0.1686E-02  0.1686E-02  0.2140E-01  0.1686E-02  0.2140E-01
      6.360  0.6689E-02  0.4315E-02  0.4315E-02  0.4315E-02  0.1465E-02  0.1465E-02  0.2128E-01  0.1465E-02  0.2128E-01
      6.370  0.6587E-02  0.4336E-02  0.4336E-02  0.4336E-02  0.1254E-02  0.1254E-02  0.2113E-01  0.1254E-02  0.2113E-01
      6.380  0.6475E-02  0.4343E-02  0.4343E-02  0.4343E-02  0.1057E-02  0.1057E-02  0.2093E-01  0.1057E-02  0.2093E-01
      6.390  0.6355E-02  0.4337E-02  0.4337E-02  0.4337E-02  0.8754E-03  0.8754E-03  0.2070E-01  0.8754E-03  0.2070E-01
      6.400  0.6231E-02  0.4318E-02  0.4318E-02  0.4318E-02  0.7105E-03  0.7105E-03  0.2044E-01  0.7105E-03  0.2044E-01
      6.410  0.6102E-02  0.4288E-02  0.4288E-02  0.4288E-02  0.5633E-03  0.5633E-03  0.2015E-01  0.5633E-03  0.2015E-01
      6.420  0.5972E-02  0.4249E-02  0.4249E-02  0.4249E-02  0.4340E-03  0.4340E-03  0.1984E-01  0.4340E-03  0.1984E-01
      6.430  0.5839E-02  0.4203E-02  0.4203E-02  0.4203E-02  0.3225E-03  0.3225E-03  0.1950E-01  0.3225E-03  0.1950E-01
      6.440  0.5704E-02  0.4151E-02  0.4151E-02  0.4151E-02  0.2281E-03  0.2281E-03  0.1914E-01  0.2281E-03  0.1914E-01
      6.450  0.5568E-02  0.4096E-02  0.4096E-02  0.4096E-02  0.1498E-03  0.1498E-03  0.1876E-01  0.1498E-03  0.1876E-01
      6.460  0.5430E-02  0.4039E-02  0.4039E-02  0.4039E-02  0.8644E-04  0.8644E-04  0.1835E-01  0.8644E-04  0.1835E-01
      6.470  0.5289E-02  0.3982E-02  0.3982E-02  0.3982E-02  0.3663E-04  0.3663E-04  0.1792E-01  0.3663E-04  0.1792E-01
      6.480  0.5146E-02  0.3927E-02  0.3927E-02  0.3927E-02 -0.1172E-05 -0.1172E-05  0.1747E-01 -0.1172E-05  0.1747E-01
      6.490  0.4998E-02  0.3873E-02  0.3873E-02  0.3873E-02 -0.2854E-04 -0.2854E-04  0.1699E-01 -0.2854E-04  0.1699E-01
      6.500  0.4847E-02  0.3822E-02  0.3822E-02  0.3822E-02 -0.4702E-04 -0.4702E-04  0.1648E-01 -0.4702E-04  0.1648E-01
      6.510  0.4690E-02  0.3774E-02  0.3774E-02  0.3774E-02 -0.5814E-04 -0.5814E-04  0.1595E-01 -0.5814E-04  0.1595E-01
      6.520  0.4528E-02  0.3728E-02  0.3728E-02  0.3728E-02 -0.6328E-04 -0.6328E-04  0.1539E-01 -0.6328E-04  0.1539E-01
      6.530  0.4359E-02  0.3685E-02  0.3685E-02  0.3685E-02 -0.6375E-04 -0.6375E-04  0.1480E-01 -0.6375E-04  0.1480E-01
      6.540  0.4185E-02  0.3642E-02  0.3642E-02  0.3642E-02 -0.6068E-04 -0.6068E-04  0.1419E-01 -0.6068E-04  0.1419E-01
      6.550  0.4004E-02  0.3600E-02  0.3600E-02  0.3600E-02 -0.5508E-04 -0.5508E-04  0.1355E-01 -0.5508E-04  0.1355E-01
      6.560  0.3817E-02  0.3556E-02  0.3556E-02  0.3556E-02 -0.4780E-04 -0.4780E-04  0.1289E-01 -0.4780E-04  0.1289E-01
      6.570  0.3625E-02  0.3510E-02  0.3510E-02  0.3510E-02 -0.3954E-04 -0.3954E-04  0.1221E-01 -0.3954E-04  0.1221E-01
      6.580  0.3428E-02  0.3459E-02  0.3459E-02  0.3459E-02 -0.3087E-04 -0.3087E-04  0.1152E-01 -0.3087E-04  0.1152E-01
      6.590  0.3227E-02  0.3404E-02  0.3404E-02  0.3404E-02 -0.2222E-04 -0.2222E-04  0.1081E-01 -0.2222E-04  0.1081E-01
      6.600  0.3024E-02  0.3342E-02  0.3342E-02  0.3342E-02 -0.1392E-04 -0.1392E-04  0.1010E-01 -0.1392E-04  0.1010E-01
      6.610  0.2819E-02  0.3273E-02  0.3273E-02  0.3273E-02 -0.6221E-05 -0.6221E-05  0.9378E-02 -0.6221E-05  0.9378E-02
      6.620  0.2614E-02  0.3196E-02  0.3196E-02  0.3196E-02  0.7324E-06  0.7324E-06  0.8663E-02  0.7324E-06  0.8663E-02
      6.630  0.2410E-02  0.3110E-02  0.3110E-02  0.3110E-02  0.6847E-05  0.6847E-05  0.7954E-02  0.6847E-05  0.7954E-02
      6.640  0.2209E-02  0.3016E-02  0.3016E-02  0.3016E-02  0.1209E-04  0.1209E-04  0.7258E-02  0.1209E-04  0.7258E-02
      6.650  0.2012E-02  0.2913E-02  0.2913E-02  0.2913E-02  0.1645E-04  0.1645E-04  0.6579E-02  0.1645E-04  0.6579E-02
      6.660  0.1820E-02  0.2801E-02  0.2801E-02  0.2801E-02  0.1996E-04  0.1996E-04  0.5922E-02  0.1996E-04  0.5922E-02
      6.670  0.1635E-02  0.2682E-02  0.2682E-02  0.2682E-02  0.2268E-04  0.2268E-04  0.5292E-02  0.2268E-04  0.5292E-02
      6.680  0.1458E-02  0.2555E-02  0.2555E-02  0.2555E-02  0.2466E-04  0.2466E-04  0.4691E-02  0.2466E-04  0.4691E-02
      6.690  0.1290E-02  0.2423E-02  0.2423E-02  0.2423E-02  0.2597E-04  0.2597E-04  0.4123E-02  0.2597E-04  0.4123E-02
      6.700  0.1131E-02  0.2285E-02  0.2285E-02  0.2285E-02  0.2669E-04  0.2669E-04  0.3592E-02  0.2669E-04  0.3592E-02
      6.710  0.9829E-03  0.2143E-02  0.2143E-02  0.2143E-02  0.2690E-04  0.2690E-04  0.3098E-02  0.2690E-04  0.3098E-02
      6.720  0.8453E-03  0.1998E-02  0.1998E-02  0.1998E-02  0.2665E-04  0.2665E-04  0.2643E-02  0.2665E-04  0.2643E-02
      6.730  0.7188E-03  0.1851E-02  0.1851E-02  0.1851E-02  0.2603E-04  0.2603E-04  0.2228E-02  0.2603E-04  0.2228E-02
      6.740  0.6034E-03  0.1704E-02  0.1704E-02  0.1704E-02  0.2508E-04  0.2508E-04  0.1853E-02  0.2508E-04  0.1853E-02
      6.750  0.4991E-03  0.1557E-02  0.1557E-02  0.1557E-02  0.2387E-04  0.2387E-04  0.1518E-02  0.2387E-04  0.1518E-02
      6.760  0.4057E-03  0.1412E-02  0.1412E-02  0.1412E-02  0.2246E-04  0.2246E-04  0.1220E-02  0.2246E-04  0.1220E-02
      6.770  0.3228E-03  0.1270E-02  0.1270E-02  0.1270E-02  0.2088E-04  0.2088E-04  0.9587E-03  0.2088E-04  0.9587E-03
      6.780  0.2501E-03  0.1131E-02  0.1131E-02  0.1131E-02  0.1918E-04  0.1918E-04  0.7318E-03  0.1918E-04  0.7318E-03
      6.790  0.1869E-03  0.9976E-03  0.9976E-03  0.9976E-03  0.1740E-04  0.1740E-04  0.5370E-03  0.1740E-04  0.5370E-03
      6.800  0.1327E-03  0.8695E-03  0.8695E-03  0.8695E-03  0.1557E-04  0.1557E-04  0.3719E-03  0.1557E-04  0.3719E-03
      6.810  0.8680E-04  0.7478E-03  0.7478E-03  0.7478E-03  0.1371E-04  0.1371E-04  0.2337E-03  0.1371E-04  0.2337E-03
      6.820  0.4853E-04  0.6331E-03  0.6331E-03  0.6331E-03  0.1186E-04  0.1186E-04  0.1199E-03  0.1186E-04  0.1199E-03
      6.830  0.1720E-04  0.5260E-03  0.5260E-03  0.5260E-03  0.1003E-04  0.1003E-04  0.2785E-04  0.1003E-04  0.2785E-04
      6.840 -0.7865E-05  0.4269E-03  0.4269E-03  0.4269E-03  0.8256E-05  0.8256E-05 -0.4499E-04  0.8256E-05 -0.4499E-04
      6.850 -0.2734E-04  0.3363E-03  0.3363E-03  0.3363E-03  0.6543E-05  0.6543E-05 -0.1010E-03  0.6543E-05 -0.1010E-03
      6.860 -0.4184E-04  0.2543E-03  0.2543E-03  0.2543E-03  0.4915E-05  0.4915E-05 -0.1423E-03  0.4915E-05 -0.1423E-03
      6.870 -0.5197E-04  0.1810E-03  0.1810E-03  0.1810E-03  0.3388E-05  0.3388E-05 -0.1708E-03  0.3388E-05 -0.1708E-03
      6.880 -0.5826E-04  0.1166E-03  0.1166E-03  0.1166E-03  0.1980E-05  0.1980E-05 -0.1883E-03  0.1980E-05 -0.1883E-03
      6.890 -0.6123E-04  0.6086E-04  0.6086E-04  0.6086E-04  0.7084E-06  0.7084E-06 -0.1963E-03  0.7084E-06 -0.1963E-03
      6.900 -0.6131E-04  0.1360E-04  0.1360E-04  0.1360E-04 -0.4080E-06 -0.4080E-06 -0.1960E-03 -0.4080E-06 -0.1960E-03
      6.910 -0.5892E-04 -0.2551E-04 -0.2551E-04 -0.2551E-04 -0.1350E-05 -0.1350E-05 -0.1885E-03 -0.1350E-05 -0.1885E-03
      6.920 -0.5442E-04 -0.5686E-04 -0.5686E-04 -0.5686E-04 -0.2096E-05 -0.2096E-05 -0.1746E-03 -0.2096E-05 -0.1746E-03
      6.930 -0.4813E-04 -0.8095E-04 -0.8095E-04 -0.8095E-04 -0.2626E-05 -0.2626E-05 -0.1551E-03 -0.2626E-05 -0.1551E-03
      6.940 -0.4033E-04 -0.9836E-04 -0.9836E-04 -0.9836E-04 -0.2918E-05 -0.2918E-05 -0.1305E-03 -0.2918E-05 -0.1305E-03
      6.950 -0.3128E-04 -0.1097E-03 -0.1097E-03 -0.1097E-03 -0.2951E-05 -0.2951E-05 -0.1013E-03 -0.2951E-05 -0.1013E-03
      6.960 -0.2121E-04 -0.1156E-03 -0.1156E-03 -0.1156E-03 -0.2704E-05 -0.2704E-05 -0.6805E-04 -0.2704E-05 -0.6805E-04
      6.970 -0.1032E-04 -0.1168E-03 -0.1168E-03 -0.1168E-03 -0.2159E-05 -0.2159E-05 -0.3105E-04 -0.2159E-05 -0.3105E-04
      6.980  0.1191E-05 -0.1140E-03 -0.1140E-03 -0.1140E-03 -0.1300E-05 -0.1300E-05  0.9250E-05 -0.1300E-05  0.9250E-05
      6.990  0.1315E-04 -0.1078E-03 -0.1078E-03 -0.1078E-03 -0.1170E-06 -0.1170E-06  0.5241E-04 -0.1170E-06  0.5241E-04
      7.000  0.2539E-04 -0.9890E-04 -0.9890E-04 -0.9890E-04  0.1396E-05  0.1396E-05  0.9794E-04  0.1396E-05  0.9794E-04
      7.010  0.3774E-04 -0.8796E-04 -0.8796E-04 -0.8796E-04  0.3237E-05  0.3237E-05  0.1453E-03  0.3237E-05  0.1453E-03
      7.020  0.5004E-04 -0.7553E-04 -0.7553E-04 -0.7553E-04  0.5398E-05  0.5398E-05  0.1939E-03  0.5398E-05  0.1939E-03
      7.030  0.6215E-04 -0.6214E-04 -0.6214E-04 -0.6214E-04  0.7862E-05  0.7862E-05  0.2430E-03  0.7862E-05  0.2430E-03
      7.040  0.7391E-04 -0.4826E-04 -0.4826E-04 -0.4826E-04  0.1060E-04  0.1060E-04  0.2919E-03  0.1060E-04  0.2919E-03
      7.050  0.8517E-04 -0.3429E-04 -0.3429E-04 -0.3429E-04  0.1358E-04  0.1358E-04  0.3397E-03  0.1358E-04  0.3397E-03
      7.060  0.9580E-04 -0.2058E-04 -0.2058E-04 -0.2058E-04  0.1676E-04  0.1676E-04  0.3858E-03  0.1676E-04  0.3858E-03
      7.070  0.1057E-03 -0.7408E-05 -0.7408E-05 -0.7408E-05  0.2008E-04  0.2008E-04  0.4292E-03  0.2008E-04  0.4292E-03
      7.080  0.1146E-03  0.5000E-05  0.5000E-05  0.5000E-05  0.2350E-04  0.2350E-04  0.4692E-03  0.2350E-04  0.4692E-03
      7.090  0.1226E-03  0.1647E-04  0.1647E-04  0.1647E-04  0.2695E-04  0.2695E-04  0.5048E-03  0.2695E-04  0.5048E-03
      7.100  0.1294E-03  0.2688E-04  0.2688E-04  0.2688E-04  0.3036E-04  0.3036E-04  0.5355E-03  0.3036E-04  0.5355E-03
      7.110  0.1351E-03  0.3616E-04  0.3616E-04  0.3616E-04  0.3369E-04  0.3369E-04  0.5606E-03  0.3369E-04  0.5606E-03
      7.120  0.1395E-03  0.4425E-04  0.4425E-04  0.4425E-04  0.3687E-04  0.3687E-04  0.5795E-03  0.3687E-04  0.5795E-03
      7.130  0.1427E-03  0.5115E-04  0.5115E-04  0.5115E-04  0.3988E-04  0.3988E-04  0.5919E-03  0.3988E-04  0.5919E-03
      7.140  0.1445E-03  0.5687E-04  0.5687E-04  0.5687E-04  0.4266E-04  0.4266E-04  0.5974E-03  0.4266E-04  0.5974E-03
      7.150  0.1450E-03  0.6145E-04  0.6145E-04  0.6145E-04  0.4521E-04  0.4521E-04  0.5962E-03  0.4521E-04  0.5962E-03
      7.160  0.1442E-03  0.6493E-04  0.6493E-04  0.6493E-04  0.4753E-04  0.4753E-04  0.5881E-03  0.4753E-04  0.5881E-03
      7.170  0.1421E-03  0.6740E-04  0.6740E-04  0.6740E-04  0.4965E-04  0.4965E-04  0.5735E-03  0.4965E-04  0.5735E-03
      7.180  0.1389E-03  0.6893E-04  0.6893E-04  0.6893E-04  0.5160E-04  0.5160E-04  0.5528E-03  0.5160E-04  0.5528E-03
      7.190  0.1347E-03  0.6959E-04  0.6959E-04  0.6959E-04  0.5347E-04  0.5347E-04  0.5264E-03  0.5347E-04  0.5264E-03
      7.200  0.1295E-03  0.6949E-04  0.6949E-04  0.6949E-04  0.5533E-04  0.5533E-04  0.4951E-03  0.5533E-04  0.4951E-03
      7.210  0.1234E-03  0.6872E-04  0.6872E-04  0.6872E-04  0.5730E-04  0.5730E-04  0.4596E-03  0.5730E-04  0.4596E-03
      7.220  0.1167E-03  0.6737E-04  0.6737E-04  0.6737E-04  0.5950E-04  0.5950E-04  0.4207E-03  0.5950E-04  0.4207E-03
      7.230  0.1094E-03  0.6555E-04  0.6555E-04  0.6555E-04  0.6206E-04  0.6206E-04  0.3795E-03  0.6206E-04  0.3795E-03
      7.240  0.1018E-03  0.6336E-04  0.6336E-04  0.6336E-04  0.6514E-04  0.6514E-04  0.3368E-03  0.6514E-04  0.3368E-03
      7.250  0.9397E-04  0.6088E-04  0.6088E-04  0.6088E-04  0.6888E-04  0.6888E-04  0.2935E-03  0.6888E-04  0.2935E-03
      7.260  0.8611E-04  0.5821E-04  0.5821E-04  0.5821E-04  0.7342E-04  0.7342E-04  0.2506E-03  0.7342E-04  0.2506E-03
      7.270  0.7837E-04  0.5544E-04  0.5544E-04  0.5544E-04  0.7888E-04  0.7888E-04  0.2089E-03  0.7888E-04  0.2089E-03
      7.280  0.7091E-04  0.5266E-04  0.5266E-04  0.5266E-04  0.8538E-04  0.8538E-04  0.1691E-03  0.8538E-04  0.1691E-03
      7.290  0.6387E-04  0.4992E-04  0.4992E-04  0.4992E-04  0.9300E-04  0.9300E-04  0.1321E-03  0.9300E-04  0.1321E-03
      7.300  0.5738E-04  0.4730E-04  0.4730E-04  0.4730E-04  0.1018E-03  0.1018E-03  0.9838E-04  0.1018E-03  0.9838E-04
      7.310  0.5157E-04  0.4486E-04  0.4486E-04  0.4486E-04  0.1118E-03  0.1118E-03  0.6843E-04  0.1118E-03  0.6843E-04
      7.320  0.4652E-04  0.4265E-04  0.4265E-04  0.4265E-04  0.1230E-03  0.1230E-03  0.4263E-04  0.1230E-03  0.4263E-04
      7.330  0.4233E-04  0.4069E-04  0.4069E-04  0.4069E-04  0.1353E-03  0.1353E-03  0.2125E-04  0.1353E-03  0.2125E-04
      7.340  0.3906E-04  0.3901E-04  0.3901E-04  0.3901E-04  0.1487E-03  0.1487E-03  0.4427E-05  0.1487E-03  0.4427E-05
      7.350  0.3676E-04  0.3764E-04  0.3764E-04  0.3764E-04  0.1629E-03  0.1629E-03 -0.7800E-05  0.1629E-03 -0.7800E-05
      7.360  0.3546E-04  0.3657E-04  0.3657E-04  0.3657E-04  0.1779E-03  0.1779E-03 -0.1550E-04  0.1779E-03 -0.1550E-04
      7.370  0.3517E-04  0.3581E-04  0.3581E-04  0.3581E-04  0.1934E-03  0.1934E-03 -0.1881E-04  0.1934E-03 -0.1881E-04
      7.380  0.3588E-04  0.3535E-04  0.3535E-04  0.3535E-04  0.2092E-03  0.2092E-03 -0.1799E-04  0.2092E-03 -0.1799E-04
      7.390  0.3757E-04  0.3517E-04  0.3517E-04  0.3517E-04  0.2251E-03  0.2251E-03 -0.1332E-04  0.2251E-03 -0.1332E-04
      7.400  0.4020E-04  0.3527E-04  0.3527E-04  0.3527E-04  0.2408E-03  0.2408E-03 -0.5172E-05  0.2408E-03 -0.5172E-05
      7.410  0.4370E-04  0.3560E-04  0.3560E-04  0.3560E-04  0.2560E-03  0.2560E-03  0.6048E-05  0.2560E-03  0.6048E-05
      7.420  0.4801E-04  0.3615E-04  0.3615E-04  0.3615E-04  0.2705E-03  0.2705E-03  0.1990E-04  0.2705E-03  0.1990E-04
      7.430  0.5303E-04  0.3689E-04  0.3689E-04  0.3689E-04  0.2840E-03  0.2840E-03  0.3591E-04  0.2840E-03  0.3591E-04
      7.440  0.5865E-04  0.3780E-04  0.3780E-04  0.3780E-04  0.2962E-03  0.2962E-03  0.5361E-04  0.2962E-03  0.5361E-04
      7.450  0.6478E-04  0.3883E-04  0.3883E-04  0.3883E-04  0.3069E-03  0.3069E-03  0.7251E-04  0.3069E-03  0.7251E-04
      7.460  0.7127E-04  0.3997E-04  0.3997E-04  0.3997E-04  0.3159E-03  0.3159E-03  0.9212E-04  0.3159E-03  0.9212E-04
      7.470  0.7800E-04  0.4119E-04  0.4119E-04  0.4119E-04  0.3230E-03  0.3230E-03  0.1120E-03  0.3230E-03  0.1120E-03
      7.480  0.8482E-04  0.4244E-04  0.4244E-04  0.4244E-04  0.3280E-03  0.3280E-03  0.1316E-03  0.3280E-03  0.1316E-03
      7.490  0.9158E-04  0.4371E-04  0.4371E-04  0.4371E-04  0.3309E-03  0.3309E-03  0.1506E-03  0.3309E-03  0.1506E-03
      7.500  0.9814E-04  0.4496E-04  0.4496E-04  0.4496E-04  0.3316E-03  0.3316E-03  0.1685E-03  0.3316E-03  0.1685E-03
      7.510  0.1044E-03  0.4616E-04  0.4616E-04  0.4616E-04  0.3299E-03  0.3299E-03  0.1850E-03  0.3299E-03  0.1850E-03
      7.520  0.1101E-03  0.4728E-04  0.4728E-04  0.4728E-04  0.3259E-03  0.3259E-03  0.1998E-03  0.3259E-03  0.1998E-03
      7.530  0.1152E-03  0.4830E-04  0.4830E-04  0.4830E-04  0.3196E-03  0.3196E-03  0.2126E-03  0.3196E-03  0.2126E-03
      7.540  0.1196E-03  0.4917E-04  0.4917E-04  0.4917E-04  0.3111E-03  0.3111E-03  0.2231E-03  0.3111E-03  0.2231E-03
      7.550  0.1231E-03  0.4988E-04  0.4988E-04  0.4988E-04  0.3006E-03  0.3006E-03  0.2312E-03  0.3006E-03  0.2312E-03
      7.560  0.1257E-03  0.5040E-04  0.5040E-04  0.5040E-04  0.2882E-03  0.2882E-03  0.2368E-03  0.2882E-03  0.2368E-03