    5    5    1    1
  0.1138240E+02  0.3846520E-09  0.3846520E-09  0.3846520E-09  0.5000000E-15
  1.000000000000000E-004
  CAR 
 SrVO3                                   
     33     35     20
 
  0.0000000E+00  0.0000000E+00  0.0000000E+00  0.1371742E-02
    1      -29.161807   1.000000
    2      -14.346337   1.000000
    3      -13.159490   1.000000
    4      -13.159489   1.000000
    5      -11.164007   1.000000
    6      -11.164007   1.000000
    7      -11.164007   1.000000
    8        0.219668   1.000000
    9        0.219668   1.000000
   10        0.219668   1.000000
   11        2.173863   1.000000
   12        2.173863   1.000000
   13        2.173863   1.000000
   14        3.013488   1.000000
   15        3.013488   1.000000
   16        3.013489   1.000000
   17        4.356894   1.000000
   18        4.356894   1.000000
   19        4.356895   1.000000
   20        6.501449   0.000000
 
  0.1111111E+00  0.0000000E+00  0.0000000E+00  0.8230453E-02
    1      -29.158357   1.000000
    2      -14.348801   1.000000
    3      -13.186287   1.000000
    4      -13.154087   1.000000
    5      -11.156910   1.000000
    6      -11.156910   1.000000
    7      -11.076014   1.000000
    8        0.043248   1.000000
    9        0.212908   1.000000
   10        0.212908   1.000000
   11        1.970452   1.000000
   12        1.970452   1.000000
   13        2.058225   1.000000
   14        2.598979   1.000000
   15        2.902022   1.000000
   16        2.902022   1.000000
   17        4.370164   1.000000
   18        4.684400   0.999935
   19        4.684401   0.999935
   20        6.504030   0.000000
 
  0.2222222E+00  0.0000000E+00  0.0000000E+00  0.8230453E-02
    1      -29.149600   1.000000
    2      -14.380423   1.000000
    3      -13.199799   1.000000
    4      -13.140671   1.000000
    5      -11.138843   1.000000
    6      -11.138843   1.000000
    7      -10.877476   1.000000
    8       -0.404273   1.000000
    9        0.198097   1.000000
   10        0.198097   1.000000
   11        1.534945   1.000000
   12        1.534945   1.000000
   13        1.785956   1.000000
   14        1.841590   1.000000
   15        2.749435   1.000000
   16        2.749435   1.000000
   17        4.404163   1.000000
   18        5.308353   0.686416
   19        5.308354   0.686412
   20        6.509048   0.000000
 
  0.3333333E+00  0.0000000E+00  0.0000000E+00  0.8230453E-02
    1      -29.139591   1.000000
    2      -14.452496   1.000000
    3      -13.139600   1.000000
    4      -13.126484   1.000000
    5      -11.118088   1.000000
    6      -11.118088   1.000000
    7      -10.682741   1.000000
    8       -0.914232   1.000000
    9        0.190446   1.000000
   10        0.190446   1.000000
   11        1.126662   1.000000
   12        1.126662   1.000000
   13        1.220654   1.000000
   14        1.505671   1.000000
   15        2.637952   1.000000
   16        2.637952   1.000000
   17        4.443591   1.000000
   18        5.876585   0.001217
   19        5.876586   0.001217
   20        6.513400   0.000000
 
  0.4444444E+00  0.0000000E+00  0.0000000E+00  0.8230453E-02
    1      -29.133044   1.000000
    2      -14.513138   1.000000
    3      -13.116512   1.000000
    4      -13.068296   1.000000
    5      -11.104422   1.000000
    6      -11.104422   1.000000
    7      -10.569796   1.000000
    8       -1.245702   1.000000
    9        0.198256   1.000000
   10        0.198256   1.000000
   11        0.881444   1.000000
   12        0.881444   1.000000
   13        0.890418   1.000000
   14        1.339370   1.000000
   15        2.575784   1.000000
   16        2.575784   1.000000
   17        4.469696   1.000000
   18        6.209321   0.000000
   19        6.209322   0.000000
   20        6.515791   0.000000
 
  0.1111111E+00  0.1111111E+00  0.0000000E+00  0.1646091E-01
    1      -29.154977   1.000000
    2      -14.342269   1.000000
    3      -13.205161   1.000000
    4      -13.159252   1.000000
    5      -11.149708   1.000000
    6      -11.111552   1.000000
    7      -11.037696   1.000000
    8       -0.064324   1.000000
    9        0.139042   1.000000
   10        0.207602   1.000000
   11        1.587602   1.000000
   12        1.812559   1.000000
   13        2.181135   1.000000
   14        2.429890   1.000000
   15        2.680269   1.000000
   16        2.752879   1.000000
   17        4.656417   0.999970
   18        4.727803   0.999799
   19        4.874053   0.996893
   20        6.712434   0.000000
 
  0.2222222E+00  0.1111111E+00  0.0000000E+00  0.3292181E-01
    1      -29.146395   1.000000
    2      -14.350039   1.000000
    3      -13.235305   1.000000
    4      -13.141465   1.000000
    5      -11.131383   1.000000
    6      -11.084578   1.000000
    7      -10.874947   1.000000
    8       -0.454794   1.000000
    9        0.061724   1.000000
   10        0.196473   1.000000
   11        1.045871   1.000000
   12        1.435013   1.000000
   13        1.828988   1.000000
   14        2.149877   1.000000
   15        2.504380   1.000000
   16        2.551163   1.000000
   17        4.708657   0.999876
   18        5.313094   0.662970
   19        5.358933   0.423967
   20        6.786584   0.000000
 
  0.3333333E+00  0.1111111E+00  0.0000000E+00  0.3292181E-01
    1      -29.136600   1.000000
    2      -14.399352   1.000000
    3      -13.195758   1.000000
    4      -13.119017   1.000000
    5      -11.110348   1.000000
    6      -11.069451   1.000000
    7      -10.702795   1.000000
    8       -0.935955   1.000000
    9        0.012263   1.000000
   10        0.193685   1.000000
   11        0.532331   1.000000
   12        1.053072   1.000000
   13        1.406279   1.000000
   14        1.980756   1.000000
   15        2.372884   1.000000
   16        2.415658   1.000000
   17        4.736725   0.999751
   18        5.874989   0.001252
   19        5.878826   0.001168
   20        6.799551   0.000000
 
  0.4444444E+00  0.1111111E+00  0.0000000E+00  0.3292181E-01
    1      -29.130187   1.000000
    2      -14.448643   1.000000
    3      -13.131675   1.000000
    4      -13.107766   1.000000
    5      -11.096492   1.000000
    6      -11.060181   1.000000
    7      -10.602411   1.000000
    8       -1.257172   1.000000
    9        0.029366   1.000000
   10        0.185550   1.000000
   11        0.206470   1.000000
   12        0.815053   1.000000
   13        1.205776   1.000000
   14        1.861762   1.000000
   15        2.300802   1.000000
   16        2.346990   1.000000
   17        4.755661   0.999615
   18        6.204814   0.000000
   19        6.205423   0.000000
   20        6.800031   0.000000
 
  0.2222222E+00  0.2222222E+00  0.0000000E+00  0.1646091E-01
    1      -29.138267   1.000000
    2      -14.288718   1.000000
    3      -13.312332   1.000000
    4      -13.120168   1.000000
    5      -11.112404   1.000000
    6      -10.989499   1.000000
    7      -10.842569   1.000000
    8       -0.651679   1.000000
    9       -0.205085   1.000000
   10        0.194542   1.000000
   11        0.424013   1.000000
   12        1.172387   1.000000
   13        1.703676   1.000000
   14        2.046962   1.000000
   15        2.241338   1.000000
   16        2.540435   1.000000
   17        5.246068   0.934292
   18        5.380723   0.313208
   19        5.595738  -0.032459
   20        7.086884   0.000000
 
  0.3333333E+00  0.2222222E+00  0.0000000E+00  0.3292181E-01
    1      -29.128991   1.000000
    2      -14.258803   1.000000
    3      -13.323165   1.000000
    4      -13.104674   1.000000
    5      -11.090592   1.000000
    6      -10.959121   1.000000
    7      -10.748473   1.000000
    8       -1.008830   1.000000
    9       -0.408610   1.000000
   10       -0.091520   1.000000
   11        0.204653   1.000000
   12        0.865932   1.000000
   13        1.493771   1.000000
   14        1.969593   1.000000
   15        2.027089   1.000000
   16        2.583515   1.000000
   17        5.315937   0.648705
   18        5.873825   0.001278
   19        5.968730   0.000167
   20        7.189202   0.000000
 
  0.4444444E+00  0.2222222E+00  0.0000000E+00  0.3292181E-01
    1      -29.122911   1.000000
    2      -14.266486   1.000000
    3      -13.265390   1.000000
    4      -13.119062   1.000000
    5      -11.076223   1.000000
    6      -10.956493   1.000000
    7      -10.677831   1.000000
    8       -1.290671   1.000000
    9       -0.597873   1.000000
   10       -0.275199   1.000000
   11        0.232375   1.000000
   12        0.653146   1.000000
   13        1.405370   1.000000
   14        1.924050   1.000000
   15        1.925242   1.000000
   16        2.557427   1.000000
   17        5.327610   0.588842
   18        6.196461   0.000000
   19        6.247239   0.000000
   20        7.217638   0.000000
 
  0.3333333E+00  0.3333333E+00  0.0000000E+00  0.1646091E-01
    1      -29.120315   1.000000
    2      -14.097168   1.000000
    3      -13.419268   1.000000
    4      -13.123666   1.000000
    5      -11.067906   1.000000
    6      -10.864284   1.000000
    7      -10.776900   1.000000
    8       -1.181023   1.000000
    9       -0.712923   1.000000
   10       -0.711998   1.000000
   11        0.228628   1.000000
   12        0.642068   1.000000
   13        1.537598   1.000000
   14        1.718090   1.000000
   15        1.860436   1.000000
   16        2.901680   1.000000
   17        5.821254   0.002873
   18        5.909344   0.000645
   19        6.184830   0.000000
   20        7.372924   0.000000
 
  0.4444444E+00  0.3333333E+00  0.0000000E+00  0.3292181E-01
    1      -29.114626   1.000000
    2      -14.005853   1.000000
    3      -13.406273   1.000000
    4      -13.190403   1.000000
    5      -11.052946   1.000000
    6      -10.849952   1.000000
    7      -10.747295   1.000000
    8       -1.369370   1.000000
    9       -1.100083   1.000000
   10       -0.802909   1.000000
   11        0.267894   1.000000
   12        0.474879   1.000000
   13        1.559228   1.000000
   14        1.607742   1.000000
   15        1.807382   1.000000
   16        3.020714   1.000000
   17        5.864401   0.001506
   18        6.189272   0.000000
   19        6.384299   0.000000
   20        7.435298   0.000000
 
  0.4444444E+00  0.4444444E+00  0.0000000E+00  0.1646091E-01
    1      -29.109192   1.000000
    2      -13.746740   1.000000
    3      -13.481694   1.000000
    4      -13.342544   1.000000
    5      -11.037609   1.000000
    6      -10.787689   1.000000
    7      -10.777345   1.000000
    8       -1.507387   1.000000
    9       -1.385266   1.000000
   10       -1.057519   1.000000
   11        0.303099   1.000000
   12        0.356202   1.000000
   13        1.352743   1.000000
   14        1.745258   1.000000
   15        1.799275   1.000000
   16        3.227658   1.000000
   17        6.177955   0.000000
   18        6.190827   0.000000
   19        6.529035   0.000000
   20        7.513229   0.000000
 
  0.1111111E+00  0.1111111E+00  0.1111111E+00  0.1097394E-01
    1      -29.151667   1.000000
    2      -14.329064   1.000000
    3      -13.193955   1.000000
    4      -13.193955   1.000000
    5      -11.115198   1.000000
    6      -11.115198   1.000000
    7      -10.991126   1.000000
    8       -0.173960   1.000000
    9        0.135934   1.000000
   10        0.135934   1.000000
   11        1.483438   1.000000
   12        1.483438   1.000000
   13        2.136234   1.000000
   14        2.301539   1.000000
   15        2.626615   1.000000
   16        2.626615   1.000000
   17        4.824670   0.998492
   18        4.915112   0.995457
   19        4.915113   0.995457
   20        7.142046   0.000000
 
  0.2222222E+00  0.1111111E+00  0.1111111E+00  0.3292181E-01
    1      -29.143248   1.000000
    2      -14.317329   1.000000
    3      -13.238062   1.000000
    4      -13.165762   1.000000
    5      -11.125029   1.000000
    6      -11.061325   1.000000
    7      -10.858575   1.000000
    8       -0.516226   1.000000
    9        0.004811   1.000000
   10        0.131678   1.000000
   11        1.007024   1.000000
   12        1.050385   1.000000
   13        1.773880   1.000000
   14        2.270936   1.000000
   15        2.369924   1.000000
   16        2.499680   1.000000
   17        4.903610   0.995810
   18        5.362658   0.404572
   19        5.382997   0.302131
   20        7.141607   0.000000
 
  0.3333333E+00  0.1111111E+00  0.1111111E+00  0.3292181E-01
    1      -29.133636   1.000000
    2      -14.345681   1.000000
    3      -13.214714   1.000000
    4      -13.131453   1.000000
    5      -11.137090   1.000000
    6      -11.013957   1.000000
    7      -10.718860   1.000000
    8       -0.958110   1.000000
    9       -0.098237   1.000000
   10        0.139833   1.000000
   11        0.488419   1.000000
   12        0.621793   1.000000
   13        1.669447   1.000000
   14        2.098621   1.000000
   15        2.122953   1.000000
   16        2.387057   1.000000
   17        4.938546   0.995068
   18        5.878906   0.001167
   19        5.894840   0.000863
   20        7.136140   0.000000
 
  0.4444444E+00  0.1111111E+00  0.1111111E+00  0.3292181E-01
    1      -29.127350   1.000000
    2      -14.384080   1.000000
    3      -13.163820   1.000000
    4      -13.109901   1.000000
    5      -11.145584   1.000000
    6      -10.984417   1.000000
    7      -10.637648   1.000000
    8       -1.267304   1.000000
    9       -0.102060   1.000000
   10        0.107080   1.000000
   11        0.169552   1.000000
   12        0.388042   1.000000
   13        1.698553   1.000000
   14        1.927527   1.000000
   15        1.960630   1.000000
   16        2.327545   1.000000
   17        4.959795   0.995397
   18        6.197173   0.000000
   19        6.221449   0.000000
   20        7.127382   0.000000
 
  0.2222222E+00  0.2222222E+00  0.1111111E+00  0.3292181E-01
    1      -29.135245   1.000000
    2      -14.248114   1.000000
    3      -13.288620   1.000000
    4      -13.152418   1.000000
    5      -11.117852   1.000000
    6      -11.017740   1.000000
    7      -10.805707   1.000000
    8       -0.714015   1.000000
    9       -0.201348   1.000000
   10        0.077229   1.000000
   11        0.451518   1.000000
   12        0.888295   1.000000
   13        1.358444   1.000000
   14        2.264798   1.000000
   15        2.281393   1.000000
   16        2.535399   1.000000
   17        5.330020   0.576279
   18        5.454336   0.035435
   19        5.618187  -0.021806
   20        7.533086   0.000000
 
  0.3333333E+00  0.2222222E+00  0.1111111E+00  0.6584362E-01
    1      -29.126113   1.000000
    2      -14.204823   1.000000
    3      -13.303648   1.000000
    4      -13.119510   1.000000
    5      -11.137302   1.000000
    6      -10.955973   1.000000
    7      -10.748062   1.000000
    8       -1.030552   1.000000
    9       -0.426761   1.000000
   10       -0.066457   1.000000
   11        0.092737   1.000000
   12        0.554071   1.000000
   13        1.292301   1.000000
   14        2.050367   1.000000
   15        2.201405   1.000000
   16        2.588006   1.000000
   17        5.414287   0.163637
   18        5.905456   0.000699
   19        5.989951   0.000097
   20        7.618762   0.000000
 
  0.4444444E+00  0.2222222E+00  0.1111111E+00  0.6584362E-01
    1      -29.120134   1.000000
    2      -14.202572   1.000000
    3      -13.264227   1.000000
    4      -13.108676   1.000000
    5      -11.158697   1.000000
    6      -10.906532   1.000000
    7      -10.719082   1.000000
    8       -1.296366   1.000000
    9       -0.589933   1.000000
   10       -0.271242   1.000000
   11        0.124418   1.000000
   12        0.299277   1.000000
   13        1.363529   1.000000
   14        1.879946   1.000000
   15        2.150054   1.000000
   16        2.564386   1.000000
   17        5.436396   0.085330
   18        6.216200   0.000000
   19        6.268075   0.000000
   20        7.631199   0.000000
 
  0.3333333E+00  0.3333333E+00  0.1111111E+00  0.3292181E-01
    1      -29.117539   1.000000
    2      -14.041160   1.000000
    3      -13.383018   1.000000
    4      -13.121071   1.000000
    5      -11.127534   1.000000
    6      -10.916998   1.000000
    7      -10.767192   1.000000
    8       -1.183970   1.000000
    9       -0.708139   1.000000
   10       -0.661984   1.000000
   11        0.074370   1.000000
   12        0.427959   1.000000
   13        1.090575   1.000000
   14        1.980846   1.000000
   15        2.109089   1.000000
   16        2.905710   1.000000
   17        5.874591   0.001261
   18        5.961873   0.000197
   19        6.208739   0.000000
   20        7.825020   0.000000
 
  0.4444444E+00  0.3333333E+00  0.1111111E+00  0.6584362E-01
    1      -29.111922   1.000000
    2      -13.944564   1.000000
    3      -13.376961   1.000000
    4      -13.164381   1.000000
    5      -11.130988   1.000000
    6      -10.868580   1.000000
    7      -10.791694   1.000000
    8       -1.367330   1.000000
    9       -1.029644   1.000000
   10       -0.796058   1.000000
   11        0.116761   1.000000
   12        0.252692   1.000000
   13        1.072713   1.000000
   14        1.948269   1.000000
   15        2.060484   1.000000
   16        3.026751   1.000000
   17        5.928684   0.000427
   18        6.230878   0.000000
   19        6.407502   0.000000
   20        7.881629   0.000000
 
  0.4444444E+00  0.4444444E+00  0.1111111E+00  0.3292181E-01
    1      -29.106539   1.000000
    2      -13.687803   1.000000
    3      -13.439449   1.000000
    4      -13.302420   1.000000
    5      -11.099311   1.000000
    6      -10.855287   1.000000
    7      -10.830438   1.000000
    8       -1.502719   1.000000
    9       -1.281181   1.000000
   10       -1.054942   1.000000
   11        0.138393   1.000000
   12        0.188539   1.000000
   13        0.938722   1.000000
   14        2.012480   1.000000
   15        2.049603   1.000000
   16        3.238560   1.000000
   17        6.230613   0.000000
   18        6.243740   0.000000
   19        6.553334   0.000000
   20        7.958155   0.000000
 
  0.2222222E+00  0.2222222E+00  0.2222222E+00  0.1097394E-01
    1      -29.127581   1.000000
    2      -14.152123   1.000000
    3      -13.223586   1.000000
    4      -13.223586   1.000000
    5      -11.092239   1.000000
    6      -11.092239   1.000000
    7      -10.754640   1.000000
    8       -0.870898   1.000000
    9       -0.191781   1.000000
   10       -0.191781   1.000000
   11        0.459097   1.000000
   12        0.459097   1.000000
   13        0.670268   1.000000
   14        2.370770   1.000000
   15        2.370770   1.000000
   16        2.639201   1.000000
   17        5.595979  -0.032343
   18        5.696819   0.001937
   19        5.696820   0.001937
   20        8.431457   0.000000
 
  0.3333333E+00  0.2222222E+00  0.2222222E+00  0.3292181E-01
    1      -29.118829   1.000000
    2      -14.063151   1.000000
    3      -13.271592   1.000000
    4      -13.144461   1.000000
    5      -11.183739   1.000000
    6      -11.013343   1.000000
    7      -10.752077   1.000000
    8       -1.088658   1.000000
    9       -0.503906   1.000000
   10       -0.176036   1.000000
   11       -0.026585   1.000000
   12        0.127600   1.000000
   13        0.634008   1.000000
   14        2.325018   1.000000
   15        2.407933   1.000000
   16        2.701669   1.000000
   17        5.708545   0.003278
   18        6.024740   0.000037
   19        6.054053   0.000016
   20        8.414738   0.000000
 
  0.4444444E+00  0.2222222E+00  0.2222222E+00  0.3292181E-01
    1      -29.113105   1.000000
    2      -14.026870   1.000000
    3      -13.274212   1.000000
    4      -13.087823   1.000000
    5      -11.248167   1.000000
    6      -10.910193   1.000000
    7      -10.805439   1.000000
    8       -1.315663   1.000000
    9       -0.657390   1.000000
   10       -0.316296   1.000000
   11       -0.145496   1.000000
   12       -0.064128   1.000000
   13        0.698908   1.000000
   14        2.295379   1.000000
   15        2.395259   1.000000
   16        2.681645   1.000000
   17        5.744958   0.004925
   18        6.288618   0.000000
   19        6.325169   0.000000
   20        8.398509   0.000000
 
  0.3333333E+00  0.3333333E+00  0.2222222E+00  0.3292181E-01
    1      -29.110517   1.000000
    2      -13.892205   1.000000
    3      -13.285756   1.000000
    4      -13.125315   1.000000
    5      -11.215202   1.000000
    6      -11.057690   1.000000
    7      -10.797838   1.000000
    8       -1.191246   1.000000
    9       -0.698285   1.000000
   10       -0.547042   1.000000
   11       -0.233653   1.000000
   12        0.073989   1.000000
   13        0.279803   1.000000
   14        2.389014   1.000000
   15        2.509353   1.000000
   16        2.938822   1.000000
   17        6.058017   0.000014
   18        6.119083   0.000002
   19        6.271197   0.000000
   20        8.780515   0.000000
 
  0.4444444E+00  0.3333333E+00  0.2222222E+00  0.6584362E-01
    1      -29.105076   1.000000
    2      -13.777414   1.000000
    3      -13.300636   1.000000
    4      -13.103945   1.000000
    5      -11.269718   1.000000
    6      -10.993953   1.000000
    7      -10.886712   1.000000
    8       -1.368812   1.000000
    9       -0.870110   1.000000
   10       -0.765279   1.000000
   11       -0.218166   1.000000
   12       -0.102957   1.000000
   13        0.290824   1.000000
   14        2.429827   1.000000
   15        2.517070   1.000000
   16        3.052808   1.000000
   17        6.122575   0.000002
   18        6.353663   0.000000
   19        6.468883   0.000000
   20        8.830256   0.000000
 
  0.4444444E+00  0.4444444E+00  0.2222222E+00  0.3292181E-01
    1      -29.099825   1.000000
    2      -13.530835   1.000000
    3      -13.323465   1.000000
    4      -13.198939   1.000000
    5      -11.242512   1.000000
    6      -11.035825   1.000000
    7      -10.980698   1.000000
    8       -1.503842   1.000000
    9       -1.049659   1.000000
   10       -1.015393   1.000000
   11       -0.173734   1.000000
   12       -0.105848   1.000000
   13        0.113439   1.000000
   14        2.519144   1.000000
   15        2.550235   1.000000
   16        3.263726   1.000000
   17        6.379876   0.000000
   18        6.389839   0.000000
   19        6.616868   0.000000
   20        8.928670   0.000000
 
  0.3333333E+00  0.3333333E+00  0.3333333E+00  0.1097394E-01
    1      -29.102514   1.000000
    2      -13.700478   1.000000
    3      -13.158846   1.000000
    4      -13.158846   1.000000
    5      -11.233728   1.000000
    6      -11.233728   1.000000
    7      -10.897665   1.000000
    8       -1.234882   1.000000
    9       -0.684861   1.000000
   10       -0.684860   1.000000
   11       -0.466047   1.000000
   12       -0.202566   1.000000
   13       -0.202566   1.000000
   14        2.730864   1.000000
   15        2.730864   1.000000
   16        3.044008   1.000000
   17        6.308417   0.000000
   18        6.355424   0.000000
   19        6.355424   0.000000
   20        9.689379   0.000000
 
  0.4444444E+00  0.3333333E+00  0.3333333E+00  0.3292181E-01
    1      -29.097273   1.000000
    2      -13.546546   1.000000
    3      -13.212467   1.000000
    4      -13.061361   1.000000
    5      -11.361924   1.000000
    6      -11.168992   1.000000
    7      -11.029799   1.000000
    8       -1.411400   1.000000
    9       -0.835683   1.000000
   10       -0.677491   1.000000
   11       -0.670924   1.000000
   12       -0.350185   1.000000
   13       -0.165576   1.000000
   14        2.794319   1.000000
   15        2.906652   1.000000
   16        3.140427   1.000000
   17        6.386085   0.000000
   18        6.526114   0.000000
   19        6.551346   0.000000
   20        9.665772   0.000000
 
  0.4444444E+00  0.4444444E+00  0.3333333E+00  0.3292181E-01
    1      -29.092168   1.000000
    2      -13.325356   1.000000
    3      -13.167365   1.000000
    4      -13.084408   1.000000
    5      -11.380869   1.000000
    6      -11.264053   1.000000
    7      -11.183628   1.000000
    8       -1.552446   1.000000
    9       -1.042864   1.000000
   10       -0.726303   1.000000
   11       -0.696148   1.000000
   12       -0.345800   1.000000
   13       -0.339960   1.000000
   14        2.993075   1.000000
   15        3.016621   1.000000
   16        3.296430   1.000000
   17        6.582401   0.000000
   18        6.589161   0.000000
   19        6.692970   0.000000
   20        9.884816   0.000000
 
  0.4444444E+00  0.4444444E+00  0.4444444E+00  0.1097394E-01
    1      -29.087167   1.000000
    2      -13.140902   1.000000
    3      -13.043350   1.000000
    4      -13.043350   1.000000
    5      -11.434419   1.000000
    6      -11.434419   1.000000
    7      -11.359745   1.000000
    8       -1.683731   1.000000
    9       -1.038717   1.000000
   10       -1.038716   1.000000
   11       -0.537221   1.000000
   12       -0.463837   1.000000
   13       -0.463837   1.000000
   14        3.274923   1.000000
   15        3.274923   1.000000
   16        3.331404   1.000000
   17        6.740027   0.000000
   18        6.746989   0.000000
   19        6.746989   0.000000
   20       10.492245   0.000000
