 vasp.6.1.1 19Jun20 (build Jul 17 2020 22:48:28) complex                        
  
 executed on             LinuxIFC date 2020.12.07  18:52:46
 running on    4 total cores
 distrk:  each k-point on    4 cores,    1 groups
 distr:  one band on NCORE=   1 cores,    4 groups


--------------------------------------------------------------------------------------------------------


 INCAR:
 POTCAR:    PAW_PBE Sr_sv 07Sep2000               
 POTCAR:    PAW_PBE V 08Apr2002                   
 POTCAR:    PAW_PBE O 08Apr2002                   
 POTCAR:    PAW_PBE Sr_sv 07Sep2000               
   SHA256 =  a8389d3481648516ee67182ee030b298d280b37e29cbbf2d8595f040d757c710 Sr_sv/POTCAR          
   COPYR  = (c) Copyright 07Sep2000 Georg Kresse                                                    
   COPYR  = This file is part of the software VASP. Any use, copying, and all other rights are regul
   COPYR  = If you do not have a valid VASP license, you may not use, copy or distribute this file. 
   VRHFIN =Sr: 4s4p5s                                                                               
   LEXCH  = PE                                                                                      
   EATOM  =   843.0319 eV,   61.9611 Ry                                                             
                                                                                                    
   TITEL  = PAW_PBE Sr_sv 07Sep2000                                                                 
   LULTRA =        F    use ultrasoft PP ?                                                          
   IUNSCR =        1    unscreen: 0-lin 1-nonlin 2-no                                               
   RPACOR =    2.200    partial core radius                                                         
   POMASS =   87.620; ZVAL   =   10.000    mass and valenz                                          
   RCORE  =    2.500    outmost cutoff radius                                                       
   RWIGS  =    4.040; RWIGS  =    2.138    wigner-seitz radius (au A)                               
   ENMAX  =  229.353; ENMIN  =  172.014 eV                                                          
   RCLOC  =    2.201    cutoff for local pot                                                        
   LCOR   =        T    correct aug charges                                                         
   LPAW   =        T    paw PP                                                                      
   EAUG   =  366.804                                                                                
   DEXC   =    0.000                                                                                
   RMAX   =    2.547    core radius for proj-oper                                                   
   RAUG   =    1.300    factor for augmentation sphere                                              
   RDEP   =    2.562    radius for radial grids                                                     
   RDEPT  =    2.128    core radius for aug-charge                                                  
                                                                                                    
   Atomic configuration                                                                             
   10 entries                                                                                       
     n  l   j            E        occ.                                                              
     1  0  0.50    -15934.8930   2.0000                                                             
     2  0  0.50     -2157.6250   2.0000                                                             
     2  1  1.50     -1917.0034   6.0000                                                             
     3  0  0.50      -333.7288   2.0000                                                             
     3  1  1.50      -256.0992   6.0000                                                             
     3  2  2.50      -127.9971  10.0000                                                             
     4  0  0.50       -40.8953   2.0000                                                             
     5  0  0.50        -3.5257   1.9990                                                             
     4  1  1.50       -22.8179   6.0000                                                             
     4  2  1.50        -1.2815   0.0010                                                             
   Description                                                                                      
     l       E           TYP  RCUT    TYP  RCUT                                                     
     0    -40.8953213     23  2.480                                                                 
     0     -3.5257161     23  2.480                                                                 
     1    -22.8178632     23  2.500                                                                 
     1    -24.1784458     23  2.500                                                                 
     2     -1.2814598     23  2.500                                                                 
     2      0.2279365     23  2.500                                                                 
  local pseudopotential read in
  partial core-charges read in
  partial kinetic energy density read in
  atomic valenz-charges read in
  non local Contribution for L=           0  read in
    real space projection operators read in
  non local Contribution for L=           0  read in
    real space projection operators read in
  non local Contribution for L=           1  read in
    real space projection operators read in
  non local Contribution for L=           1  read in
    real space projection operators read in
  non local Contribution for L=           2  read in
    real space projection operators read in
  non local Contribution for L=           2  read in
    real space projection operators read in
    PAW grid and wavefunctions read in
 
   number of l-projection  operators is LMAX  =           6
   number of lm-projection operators is LMMAX =          18
 
 POTCAR:    PAW_PBE V 08Apr2002                   
   SHA256 =  ef546ef2c242197bded3fc1a147275a02051e3e940c74ac2c3352ea17412f79c V/POTCAR              
   COPYR  = (c) Copyright 08Apr2002 Georg Kresse                                                    
   COPYR  = This file is part of the software VASP. Any use, copying, and all other rights are regul
   COPYR  = If you do not have a valid VASP license, you may not use, copy or distribute this file. 
   VRHFIN =V: p6 d4 s1                                                                              
   LEXCH  = PE                                                                                      
   EATOM  =   170.8679 eV,   12.5584 Ry                                                             
                                                                                                    
   TITEL  = PAW_PBE V 08Apr2002                                                                     
   LULTRA =        F    use ultrasoft PP ?                                                          
   IUNSCR =        1    unscreen: 0-lin 1-nonlin 2-no                                               
   RPACOR =    2.000    partial core radius                                                         
   POMASS =   50.941; ZVAL   =    5.000    mass and valenz                                          
   RCORE  =    2.700    outmost cutoff radius                                                       
   RWIGS  =    2.500; RWIGS  =    1.323    wigner-seitz radius (au A)                               
   ENMAX  =  192.543; ENMIN  =  144.408 eV                                                          
   RCLOC  =    1.779    cutoff for local pot                                                        
   LCOR   =        T    correct aug charges                                                         
   LPAW   =        T    paw PP                                                                      
   EAUG   =  358.662                                                                                
   DEXC   =    0.000                                                                                
   RMAX   =    2.768    core radius for proj-oper                                                   
   RAUG   =    1.300    factor for augmentation sphere                                              
   RDEP   =    2.762    radius for radial grids                                                     
   RDEPT  =    2.240    core radius for aug-charge                                                  
                                                                                                    
   Atomic configuration                                                                             
    9 entries                                                                                       
     n  l   j            E        occ.                                                              
     1  0  0.50     -5360.7193   2.0000                                                             
     2  0  0.50      -598.4546   2.0000                                                             
     2  1  1.50      -499.0155   6.0000                                                             
     3  0  0.50       -66.5711   2.0000                                                             
     3  1  1.50       -40.5282   6.0000                                                             
     3  2  2.50        -2.4291   4.0000                                                             
     4  0  0.50        -3.8743   1.0000                                                             
     4  1  0.50        -2.7212   0.0000                                                             
     4  3  2.50        -1.3606   0.0000                                                             
   Description                                                                                      
     l       E           TYP  RCUT    TYP  RCUT                                                     
     2     -2.4290901     23  2.700                                                                 
     2     -3.7896727     23  2.700                                                                 
     0     -3.8742752     23  2.700                                                                 
     0     27.2116520     23  2.700                                                                 
     1     -2.7211652     23  2.700                                                                 
     1     27.2116520     23  2.700                                                                 
  local pseudopotential read in
  partial core-charges read in
  partial kinetic energy density read in
  atomic valenz-charges read in
  non local Contribution for L=           2  read in
    real space projection operators read in
  non local Contribution for L=           2  read in
    real space projection operators read in
  non local Contribution for L=           0  read in
    real space projection operators read in
  non local Contribution for L=           0  read in
    real space projection operators read in
  non local Contribution for L=           1  read in
    real space projection operators read in
  non local Contribution for L=           1  read in
    real space projection operators read in
    PAW grid and wavefunctions read in
 
   number of l-projection  operators is LMAX  =           6
   number of lm-projection operators is LMMAX =          18
 
 POTCAR:    PAW_PBE O 08Apr2002                   
   SHA256 =  818f92134a0a090dccd8ba1447fa70422a3b330e708bb4f08108d8ae51209ddf O/POTCAR              
   COPYR  = (c) Copyright 08Apr2002 Georg Kresse                                                    
   COPYR  = This file is part of the software VASP. Any use, copying, and all other rights are regul
   COPYR  = If you do not have a valid VASP license, you may not use, copy or distribute this file. 
   VRHFIN =O: s2p4                                                                                  
   LEXCH  = PE                                                                                      
   EATOM  =   432.3788 eV,   31.7789 Ry                                                             
                                                                                                    
   TITEL  = PAW_PBE O 08Apr2002                                                                     
   LULTRA =        F    use ultrasoft PP ?                                                          
   IUNSCR =        1    unscreen: 0-lin 1-nonlin 2-no                                               
   RPACOR =    1.200    partial core radius                                                         
   POMASS =   16.000; ZVAL   =    6.000    mass and valenz                                          
   RCORE  =    1.520    outmost cutoff radius                                                       
   RWIGS  =    1.550; RWIGS  =    0.820    wigner-seitz radius (au A)                               
   ENMAX  =  400.000; ENMIN  =  300.000 eV                                                          
   ICORE  =        2    local potential                                                             
   LCOR   =        T    correct aug charges                                                         
   LPAW   =        T    paw PP                                                                      
   EAUG   =  605.392                                                                                
   DEXC   =    0.000                                                                                
   RMAX   =    1.553    core radius for proj-oper                                                   
   RAUG   =    1.300    factor for augmentation sphere                                              
   RDEP   =    1.550    radius for radial grids                                                     
   RDEPT  =    1.329    core radius for aug-charge                                                  
                                                                                                    
   Atomic configuration                                                                             
    4 entries                                                                                       
     n  l   j            E        occ.                                                              
     1  0  0.50      -514.6923   2.0000                                                             
     2  0  0.50       -23.9615   2.0000                                                             
     2  1  0.50        -9.0305   4.0000                                                             
     3  2  1.50        -9.5241   0.0000                                                             
   Description                                                                                      
     l       E           TYP  RCUT    TYP  RCUT                                                     
     0    -23.9615318     23  1.200                                                                 
     0     -9.5240782     23  1.200                                                                 
     1     -9.0304911     23  1.520                                                                 
     1      8.1634956     23  1.520                                                                 
     2     -9.5240782      7  1.500                                                                 
  local pseudopotential read in
  partial core-charges read in
  partial kinetic energy density read in
  kinetic energy density of atom read in
  atomic valenz-charges read in
  non local Contribution for L=           0  read in
    real space projection operators read in
  non local Contribution for L=           0  read in
    real space projection operators read in
  non local Contribution for L=           1  read in
    real space projection operators read in
  non local Contribution for L=           1  read in
    real space projection operators read in
    PAW grid and wavefunctions read in
 
   number of l-projection  operators is LMAX  =           4
   number of lm-projection operators is LMMAX =           8
 
  PAW_PBE Sr_sv 07Sep2000               :
 energy of atom  1       EATOM= -843.0319
 kinetic energy error for atom=    0.0032 (will be added to EATOM!!)
  PAW_PBE V 08Apr2002                   :
 energy of atom  2       EATOM= -170.8679
 kinetic energy error for atom=    0.0010 (will be added to EATOM!!)
  PAW_PBE O 08Apr2002                   :
 energy of atom  3       EATOM= -432.3788
 kinetic energy error for atom=    0.1156 (will be added to EATOM!!)
 
 
 POSCAR: SrVO3
  positions in direct lattice
  No initial velocities read in
 exchange correlation table for  LEXCH =        8
   RHO(1)=    0.500       N(1)  =     2000
   RHO(2)=  100.500       N(2)  =     4000
 


--------------------------------------------------------------------------------------------------------


 ion  position               nearest neighbor table
   1  0.000  0.000  0.000-   3 2.72   4 2.72   5 2.72   4 2.72   5 2.72   3 2.72   4 2.72   4 2.72
                             3 2.72   5 2.72   5 2.72   3 2.72   2 3.33   2 3.33   2 3.33   2 3.33
   2  0.500  0.500  0.500-   3 1.92   4 1.92   5 1.92   3 1.92   5 1.92   4 1.92   1 3.33   1 3.33
                             1 3.33   1 3.33   1 3.33   1 3.33   1 3.33   1 3.33
   3  0.500  0.500  0.000-   2 1.92   2 1.92   1 2.72   1 2.72   1 2.72   1 2.72
   4  0.000  0.500  0.500-   2 1.92   2 1.92   1 2.72   1 2.72   1 2.72   1 2.72
   5  0.500  0.000  0.500-   2 1.92   2 1.92   1 2.72   1 2.72   1 2.72   1 2.72
 
  LATTYP: Found a simple cubic cell.
 ALAT       =     3.8465200000
  
  Lattice vectors:
  
 A1 = (   3.8465200000,   0.0000000000,   0.0000000000)
 A2 = (   0.0000000000,   3.8465200000,   0.0000000000)
 A3 = (   0.0000000000,   0.0000000000,   3.8465200000)


Analysis of symmetry for initial positions (statically):
=====================================================================
 Subroutine PRICEL returns:
 Original cell was already a primitive cell.
 

 Routine SETGRP: Setting up the symmetry group for a 
 simple cubic supercell.


 Subroutine GETGRP returns: Found 48 space group operations
 (whereof 48 operations were pure point group operations)
 out of a pool of 48 trial point group operations.


The static configuration has the point symmetry O_h .


Analysis of symmetry for dynamics (positions and initial velocities):
=====================================================================
 Subroutine PRICEL returns:
 Original cell was already a primitive cell.
 

 Routine SETGRP: Setting up the symmetry group for a 
 simple cubic supercell.


 Subroutine GETGRP returns: Found 48 space group operations
 (whereof 48 operations were pure point group operations)
 out of a pool of 48 trial point group operations.


The dynamic configuration has the point symmetry O_h .


 Subroutine INISYM returns: Found 48 space group operations
 (whereof 48 operations are pure point group operations),
 and found     1 'primitive' translations


----------------------------------------------------------------------------------------

                                     Primitive cell                                     

  volume of cell :      56.9120

  direct lattice vectors                    reciprocal lattice vectors
     3.846520000  0.000000000  0.000000000     0.259975250  0.000000000  0.000000000
     0.000000000  3.846520000  0.000000000     0.000000000  0.259975250  0.000000000
     0.000000000  0.000000000  3.846520000     0.000000000  0.000000000  0.259975250

  length of vectors
     3.846520000  3.846520000  3.846520000     0.259975250  0.259975250  0.259975250

  position of ions in fractional coordinates (direct lattice)
     0.000000000  0.000000000  0.000000000
     0.500000000  0.500000000  0.500000000
     0.500000000  0.500000000  0.000000000
     0.000000000  0.500000000  0.500000000
     0.500000000  0.000000000  0.500000000

  ion indices of the primitive-cell ions
   primitive index   ion index
                 1           1
                 2           2
                 3           3
                 4           4
                 5           5

----------------------------------------------------------------------------------------

 
 

Automatic generation of k-mesh.
 generate k-points for:    9    9    9
Space group operators:
 irot       det(A)        alpha          n_x          n_y          n_z        tau_x        tau_y        tau_z
    1     1.000000     0.000000     1.000000     0.000000     0.000000     0.000000     0.000000     0.000000
    2    -1.000000     0.000000     1.000000     0.000000     0.000000     0.000000     0.000000     0.000000
    3     1.000000   120.000000    -0.577350    -0.577350    -0.577350     0.000000     0.000000     0.000000
    4    -1.000000   120.000000    -0.577350    -0.577350    -0.577350     0.000000     0.000000     0.000000
    5     1.000000   120.000000     0.577350     0.577350     0.577350     0.000000     0.000000     0.000000
    6    -1.000000   120.000000     0.577350     0.577350     0.577350     0.000000     0.000000     0.000000
    7     1.000000    90.000000     0.000000     0.000000    -1.000000     0.000000     0.000000     0.000000
    8    -1.000000    90.000000     0.000000     0.000000    -1.000000     0.000000     0.000000     0.000000
    9     1.000000   180.000000     0.000000     0.707107     0.707107     0.000000     0.000000     0.000000
   10    -1.000000   180.000000     0.000000     0.707107     0.707107     0.000000     0.000000     0.000000
   11     1.000000    90.000000     0.000000     1.000000     0.000000     0.000000     0.000000     0.000000
   12    -1.000000    90.000000     0.000000     1.000000     0.000000     0.000000     0.000000     0.000000
   13     1.000000   180.000000     0.000000     0.000000     1.000000     0.000000     0.000000     0.000000
   14    -1.000000   180.000000     0.000000     0.000000     1.000000     0.000000     0.000000     0.000000
   15     1.000000   120.000000    -0.577350     0.577350     0.577350     0.000000     0.000000     0.000000
   16    -1.000000   120.000000    -0.577350     0.577350     0.577350     0.000000     0.000000     0.000000
   17     1.000000   120.000000    -0.577350     0.577350    -0.577350     0.000000     0.000000     0.000000
   18    -1.000000   120.000000    -0.577350     0.577350    -0.577350     0.000000     0.000000     0.000000
   19     1.000000    90.000000     0.000000     0.000000     1.000000     0.000000     0.000000     0.000000
   20    -1.000000    90.000000     0.000000     0.000000     1.000000     0.000000     0.000000     0.000000
   21     1.000000    90.000000    -1.000000     0.000000     0.000000     0.000000     0.000000     0.000000
   22    -1.000000    90.000000    -1.000000     0.000000     0.000000     0.000000     0.000000     0.000000
   23     1.000000   180.000000     0.707107     0.000000     0.707107     0.000000     0.000000     0.000000
   24    -1.000000   180.000000     0.707107     0.000000     0.707107     0.000000     0.000000     0.000000
   25     1.000000   120.000000     0.577350    -0.577350     0.577350     0.000000     0.000000     0.000000
   26    -1.000000   120.000000     0.577350    -0.577350     0.577350     0.000000     0.000000     0.000000
   27     1.000000   120.000000    -0.577350    -0.577350     0.577350     0.000000     0.000000     0.000000
   28    -1.000000   120.000000    -0.577350    -0.577350     0.577350     0.000000     0.000000     0.000000
   29     1.000000   180.000000     1.000000     0.000000     0.000000     0.000000     0.000000     0.000000
   30    -1.000000   180.000000     1.000000     0.000000     0.000000     0.000000     0.000000     0.000000
   31     1.000000    90.000000     0.000000    -1.000000     0.000000     0.000000     0.000000     0.000000
   32    -1.000000    90.000000     0.000000    -1.000000     0.000000     0.000000     0.000000     0.000000
   33     1.000000   180.000000     0.707107     0.707107     0.000000     0.000000     0.000000     0.000000
   34    -1.000000   180.000000     0.707107     0.707107     0.000000     0.000000     0.000000     0.000000
   35     1.000000    90.000000     1.000000     0.000000     0.000000     0.000000     0.000000     0.000000
   36    -1.000000    90.000000     1.000000     0.000000     0.000000     0.000000     0.000000     0.000000
   37     1.000000   120.000000     0.577350    -0.577350    -0.577350     0.000000     0.000000     0.000000
   38    -1.000000   120.000000     0.577350    -0.577350    -0.577350     0.000000     0.000000     0.000000
   39     1.000000   180.000000     0.000000     1.000000     0.000000     0.000000     0.000000     0.000000
   40    -1.000000   180.000000     0.000000     1.000000     0.000000     0.000000     0.000000     0.000000
   41     1.000000   120.000000     0.577350     0.577350    -0.577350     0.000000     0.000000     0.000000
   42    -1.000000   120.000000     0.577350     0.577350    -0.577350     0.000000     0.000000     0.000000
   43     1.000000   180.000000     0.000000    -0.707107     0.707107     0.000000     0.000000     0.000000
   44    -1.000000   180.000000     0.000000    -0.707107     0.707107     0.000000     0.000000     0.000000
   45     1.000000   180.000000     0.707107    -0.707107     0.000000     0.000000     0.000000     0.000000
   46    -1.000000   180.000000     0.707107    -0.707107     0.000000     0.000000     0.000000     0.000000
   47     1.000000   180.000000     0.707107     0.000000    -0.707107     0.000000     0.000000     0.000000
   48    -1.000000   180.000000     0.707107     0.000000    -0.707107     0.000000     0.000000     0.000000
 
 Subroutine IBZKPT returns following result:
 ===========================================
 
 Found     35 irreducible k-points:
 
 Following reciprocal coordinates:
            Coordinates               Weight
  0.000000  0.000000  0.000000      1.000000
  0.111111  0.000000  0.000000      6.000000
  0.222222  0.000000  0.000000      6.000000
  0.333333  0.000000  0.000000      6.000000
  0.444444  0.000000  0.000000      6.000000
  0.111111  0.111111  0.000000     12.000000
  0.222222  0.111111  0.000000     24.000000
  0.333333  0.111111  0.000000     24.000000
  0.444444  0.111111  0.000000     24.000000
  0.222222  0.222222  0.000000     12.000000
  0.333333  0.222222  0.000000     24.000000
  0.444444  0.222222  0.000000     24.000000
  0.333333  0.333333  0.000000     12.000000
  0.444444  0.333333  0.000000     24.000000
  0.444444  0.444444  0.000000     12.000000
  0.111111  0.111111  0.111111      8.000000
  0.222222  0.111111  0.111111     24.000000
  0.333333  0.111111  0.111111     24.000000
  0.444444  0.111111  0.111111     24.000000
  0.222222  0.222222  0.111111     24.000000
  0.333333  0.222222  0.111111     48.000000
  0.444444  0.222222  0.111111     48.000000
  0.333333  0.333333  0.111111     24.000000
  0.444444  0.333333  0.111111     48.000000
  0.444444  0.444444  0.111111     24.000000
  0.222222  0.222222  0.222222      8.000000
  0.333333  0.222222  0.222222     24.000000
  0.444444  0.222222  0.222222     24.000000
  0.333333  0.333333  0.222222     24.000000
  0.444444  0.333333  0.222222     48.000000
  0.444444  0.444444  0.222222     24.000000
  0.333333  0.333333  0.333333      8.000000
  0.444444  0.333333  0.333333     24.000000
  0.444444  0.444444  0.333333     24.000000
  0.444444  0.444444  0.444444      8.000000
 
 Following cartesian coordinates:
            Coordinates               Weight
  0.000000  0.000000  0.000000      1.000000
  0.111111  0.000000  0.000000      6.000000
  0.222222  0.000000  0.000000      6.000000
  0.333333  0.000000  0.000000      6.000000
  0.444444  0.000000  0.000000      6.000000
  0.111111  0.111111  0.000000     12.000000
  0.222222  0.111111  0.000000     24.000000
  0.333333  0.111111  0.000000     24.000000
  0.444444  0.111111  0.000000     24.000000
  0.222222  0.222222  0.000000     12.000000
  0.333333  0.222222  0.000000     24.000000
  0.444444  0.222222  0.000000     24.000000
  0.333333  0.333333  0.000000     12.000000
  0.444444  0.333333  0.000000     24.000000
  0.444444  0.444444  0.000000     12.000000
  0.111111  0.111111  0.111111      8.000000
  0.222222  0.111111  0.111111     24.000000
  0.333333  0.111111  0.111111     24.000000
  0.444444  0.111111  0.111111     24.000000
  0.222222  0.222222  0.111111     24.000000
  0.333333  0.222222  0.111111     48.000000
  0.444444  0.222222  0.111111     48.000000
  0.333333  0.333333  0.111111     24.000000
  0.444444  0.333333  0.111111     48.000000
  0.444444  0.444444  0.111111     24.000000
  0.222222  0.222222  0.222222      8.000000
  0.333333  0.222222  0.222222     24.000000
  0.444444  0.222222  0.222222     24.000000
  0.333333  0.333333  0.222222     24.000000
  0.444444  0.333333  0.222222     48.000000
  0.444444  0.444444  0.222222     24.000000
  0.333333  0.333333  0.333333      8.000000
  0.444444  0.333333  0.333333     24.000000
  0.444444  0.444444  0.333333     24.000000
  0.444444  0.444444  0.444444      8.000000
 
 
 Subroutine IBZKPT_HF returns following result:
 ==============================================
 
 Found    729 k-points in 1st BZ
 the following    729 k-points will be used (e.g. in the exchange kernel)
 Following reciprocal coordinates:   # in IRBZ
  0.000000  0.000000  0.000000    0.00137174   1 t-inv F
  0.111111  0.000000  0.000000    0.00137174   2 t-inv F
  0.222222  0.000000  0.000000    0.00137174   3 t-inv F
  0.333333  0.000000  0.000000    0.00137174   4 t-inv F
  0.444444  0.000000  0.000000    0.00137174   5 t-inv F
  0.111111  0.111111  0.000000    0.00137174   6 t-inv F
  0.222222  0.111111  0.000000    0.00137174   7 t-inv F
  0.333333  0.111111  0.000000    0.00137174   8 t-inv F
  0.444444  0.111111  0.000000    0.00137174   9 t-inv F
  0.222222  0.222222  0.000000    0.00137174  10 t-inv F
  0.333333  0.222222  0.000000    0.00137174  11 t-inv F
  0.444444  0.222222  0.000000    0.00137174  12 t-inv F
  0.333333  0.333333  0.000000    0.00137174  13 t-inv F
  0.444444  0.333333  0.000000    0.00137174  14 t-inv F
  0.444444  0.444444  0.000000    0.00137174  15 t-inv F
  0.111111  0.111111  0.111111    0.00137174  16 t-inv F
  0.222222  0.111111  0.111111    0.00137174  17 t-inv F
  0.333333  0.111111  0.111111    0.00137174  18 t-inv F
  0.444444  0.111111  0.111111    0.00137174  19 t-inv F
  0.222222  0.222222  0.111111    0.00137174  20 t-inv F
  0.333333  0.222222  0.111111    0.00137174  21 t-inv F
  0.444444  0.222222  0.111111    0.00137174  22 t-inv F
  0.333333  0.333333  0.111111    0.00137174  23 t-inv F
  0.444444  0.333333  0.111111    0.00137174  24 t-inv F
  0.444444  0.444444  0.111111    0.00137174  25 t-inv F
  0.222222  0.222222  0.222222    0.00137174  26 t-inv F
  0.333333  0.222222  0.222222    0.00137174  27 t-inv F
  0.444444  0.222222  0.222222    0.00137174  28 t-inv F
  0.333333  0.333333  0.222222    0.00137174  29 t-inv F
  0.444444  0.333333  0.222222    0.00137174  30 t-inv F
  0.444444  0.444444  0.222222    0.00137174  31 t-inv F
  0.333333  0.333333  0.333333    0.00137174  32 t-inv F
  0.444444  0.333333  0.333333    0.00137174  33 t-inv F
  0.444444  0.444444  0.333333    0.00137174  34 t-inv F
  0.444444  0.444444  0.444444    0.00137174  35 t-inv F
 -0.111111  0.000000  0.000000    0.00137174   2 t-inv F
  0.000000  0.111111  0.000000    0.00137174   2 t-inv F
  0.000000 -0.111111  0.000000    0.00137174   2 t-inv F
  0.000000  0.000000  0.111111    0.00137174   2 t-inv F
  0.000000  0.000000 -0.111111    0.00137174   2 t-inv F
 -0.222222  0.000000  0.000000    0.00137174   3 t-inv F
  0.000000  0.222222  0.000000    0.00137174   3 t-inv F
  0.000000 -0.222222  0.000000    0.00137174   3 t-inv F
  0.000000  0.000000  0.222222    0.00137174   3 t-inv F
  0.000000  0.000000 -0.222222    0.00137174   3 t-inv F
 -0.333333  0.000000  0.000000    0.00137174   4 t-inv F
  0.000000  0.333333  0.000000    0.00137174   4 t-inv F
  0.000000 -0.333333  0.000000    0.00137174   4 t-inv F
  0.000000  0.000000  0.333333    0.00137174   4 t-inv F
  0.000000  0.000000 -0.333333    0.00137174   4 t-inv F
 -0.444444  0.000000  0.000000    0.00137174   5 t-inv F
  0.000000  0.444444  0.000000    0.00137174   5 t-inv F
  0.000000 -0.444444  0.000000    0.00137174   5 t-inv F
  0.000000  0.000000  0.444444    0.00137174   5 t-inv F
  0.000000  0.000000 -0.444444    0.00137174   5 t-inv F
 -0.111111 -0.111111  0.000000    0.00137174   6 t-inv F
  0.000000  0.111111  0.111111    0.00137174   6 t-inv F
  0.000000 -0.111111 -0.111111    0.00137174   6 t-inv F
  0.111111  0.000000  0.111111    0.00137174   6 t-inv F
 -0.111111  0.000000 -0.111111    0.00137174   6 t-inv F
 -0.111111  0.111111  0.000000    0.00137174   6 t-inv F
  0.111111 -0.111111  0.000000    0.00137174   6 t-inv F
 -0.111111  0.000000  0.111111    0.00137174   6 t-inv F
  0.111111  0.000000 -0.111111    0.00137174   6 t-inv F
  0.000000 -0.111111  0.111111    0.00137174   6 t-inv F
  0.000000  0.111111 -0.111111    0.00137174   6 t-inv F
 -0.222222 -0.111111  0.000000    0.00137174   7 t-inv F
  0.000000  0.222222  0.111111    0.00137174   7 t-inv F
  0.000000 -0.222222 -0.111111    0.00137174   7 t-inv F
  0.111111  0.000000  0.222222    0.00137174   7 t-inv F
 -0.111111  0.000000 -0.222222    0.00137174   7 t-inv F
 -0.111111  0.222222  0.000000    0.00137174   7 t-inv F
  0.111111 -0.222222  0.000000    0.00137174   7 t-inv F
 -0.222222  0.000000  0.111111    0.00137174   7 t-inv F
  0.222222  0.000000 -0.111111    0.00137174   7 t-inv F
  0.000000  0.111111  0.222222    0.00137174   7 t-inv F
  0.000000 -0.111111 -0.222222    0.00137174   7 t-inv F
  0.000000 -0.222222  0.111111    0.00137174   7 t-inv F
  0.000000  0.222222 -0.111111    0.00137174   7 t-inv F
 -0.111111  0.000000  0.222222    0.00137174   7 t-inv F
  0.111111  0.000000 -0.222222    0.00137174   7 t-inv F
  0.222222  0.000000  0.111111    0.00137174   7 t-inv F
 -0.222222  0.000000 -0.111111    0.00137174   7 t-inv F
  0.000000 -0.111111  0.222222    0.00137174   7 t-inv F
  0.000000  0.111111 -0.222222    0.00137174   7 t-inv F
  0.222222 -0.111111  0.000000    0.00137174   7 t-inv F
 -0.222222  0.111111  0.000000    0.00137174   7 t-inv F
  0.111111  0.222222  0.000000    0.00137174   7 t-inv F
 -0.111111 -0.222222  0.000000    0.00137174   7 t-inv F
 -0.333333 -0.111111  0.000000    0.00137174   8 t-inv F
  0.000000  0.333333  0.111111    0.00137174   8 t-inv F
  0.000000 -0.333333 -0.111111    0.00137174   8 t-inv F
  0.111111  0.000000  0.333333    0.00137174   8 t-inv F
 -0.111111  0.000000 -0.333333    0.00137174   8 t-inv F
 -0.111111  0.333333  0.000000    0.00137174   8 t-inv F
  0.111111 -0.333333  0.000000    0.00137174   8 t-inv F
 -0.333333  0.000000  0.111111    0.00137174   8 t-inv F
  0.333333  0.000000 -0.111111    0.00137174   8 t-inv F
  0.000000  0.111111  0.333333    0.00137174   8 t-inv F
  0.000000 -0.111111 -0.333333    0.00137174   8 t-inv F
  0.000000 -0.333333  0.111111    0.00137174   8 t-inv F
  0.000000  0.333333 -0.111111    0.00137174   8 t-inv F
 -0.111111  0.000000  0.333333    0.00137174   8 t-inv F
  0.111111  0.000000 -0.333333    0.00137174   8 t-inv F
  0.333333  0.000000  0.111111    0.00137174   8 t-inv F
 -0.333333  0.000000 -0.111111    0.00137174   8 t-inv F
  0.000000 -0.111111  0.333333    0.00137174   8 t-inv F
  0.000000  0.111111 -0.333333    0.00137174   8 t-inv F
  0.333333 -0.111111  0.000000    0.00137174   8 t-inv F
 -0.333333  0.111111  0.000000    0.00137174   8 t-inv F
  0.111111  0.333333  0.000000    0.00137174   8 t-inv F
 -0.111111 -0.333333  0.000000    0.00137174   8 t-inv F
 -0.444444 -0.111111  0.000000    0.00137174   9 t-inv F
  0.000000  0.444444  0.111111    0.00137174   9 t-inv F
  0.000000 -0.444444 -0.111111    0.00137174   9 t-inv F
  0.111111  0.000000  0.444444    0.00137174   9 t-inv F
 -0.111111  0.000000 -0.444444    0.00137174   9 t-inv F
 -0.111111  0.444444  0.000000    0.00137174   9 t-inv F
  0.111111 -0.444444  0.000000    0.00137174   9 t-inv F
 -0.444444  0.000000  0.111111    0.00137174   9 t-inv F
  0.444444  0.000000 -0.111111    0.00137174   9 t-inv F
  0.000000  0.111111  0.444444    0.00137174   9 t-inv F
  0.000000 -0.111111 -0.444444    0.00137174   9 t-inv F
  0.000000 -0.444444  0.111111    0.00137174   9 t-inv F
  0.000000  0.444444 -0.111111    0.00137174   9 t-inv F
 -0.111111  0.000000  0.444444    0.00137174   9 t-inv F
  0.111111  0.000000 -0.444444    0.00137174   9 t-inv F
  0.444444  0.000000  0.111111    0.00137174   9 t-inv F
 -0.444444  0.000000 -0.111111    0.00137174   9 t-inv F
  0.000000 -0.111111  0.444444    0.00137174   9 t-inv F
  0.000000  0.111111 -0.444444    0.00137174   9 t-inv F
  0.444444 -0.111111  0.000000    0.00137174   9 t-inv F
 -0.444444  0.111111  0.000000    0.00137174   9 t-inv F
  0.111111  0.444444  0.000000    0.00137174   9 t-inv F
 -0.111111 -0.444444  0.000000    0.00137174   9 t-inv F
 -0.222222 -0.222222  0.000000    0.00137174  10 t-inv F
  0.000000  0.222222  0.222222    0.00137174  10 t-inv F
  0.000000 -0.222222 -0.222222    0.00137174  10 t-inv F
  0.222222  0.000000  0.222222    0.00137174  10 t-inv F
 -0.222222  0.000000 -0.222222    0.00137174  10 t-inv F
 -0.222222  0.222222  0.000000    0.00137174  10 t-inv F
  0.222222 -0.222222  0.000000    0.00137174  10 t-inv F
 -0.222222  0.000000  0.222222    0.00137174  10 t-inv F
  0.222222  0.000000 -0.222222    0.00137174  10 t-inv F
  0.000000 -0.222222  0.222222    0.00137174  10 t-inv F
  0.000000  0.222222 -0.222222    0.00137174  10 t-inv F
 -0.333333 -0.222222  0.000000    0.00137174  11 t-inv F
  0.000000  0.333333  0.222222    0.00137174  11 t-inv F
  0.000000 -0.333333 -0.222222    0.00137174  11 t-inv F
  0.222222  0.000000  0.333333    0.00137174  11 t-inv F
 -0.222222  0.000000 -0.333333    0.00137174  11 t-inv F
 -0.222222  0.333333  0.000000    0.00137174  11 t-inv F
  0.222222 -0.333333  0.000000    0.00137174  11 t-inv F
 -0.333333  0.000000  0.222222    0.00137174  11 t-inv F
  0.333333  0.000000 -0.222222    0.00137174  11 t-inv F
  0.000000  0.222222  0.333333    0.00137174  11 t-inv F
  0.000000 -0.222222 -0.333333    0.00137174  11 t-inv F
  0.000000 -0.333333  0.222222    0.00137174  11 t-inv F
  0.000000  0.333333 -0.222222    0.00137174  11 t-inv F
 -0.222222  0.000000  0.333333    0.00137174  11 t-inv F
  0.222222  0.000000 -0.333333    0.00137174  11 t-inv F
  0.333333  0.000000  0.222222    0.00137174  11 t-inv F
 -0.333333  0.000000 -0.222222    0.00137174  11 t-inv F
  0.000000 -0.222222  0.333333    0.00137174  11 t-inv F
  0.000000  0.222222 -0.333333    0.00137174  11 t-inv F
  0.333333 -0.222222  0.000000    0.00137174  11 t-inv F
 -0.333333  0.222222  0.000000    0.00137174  11 t-inv F
  0.222222  0.333333  0.000000    0.00137174  11 t-inv F
 -0.222222 -0.333333  0.000000    0.00137174  11 t-inv F
 -0.444444 -0.222222  0.000000    0.00137174  12 t-inv F
  0.000000  0.444444  0.222222    0.00137174  12 t-inv F
  0.000000 -0.444444 -0.222222    0.00137174  12 t-inv F
  0.222222  0.000000  0.444444    0.00137174  12 t-inv F
 -0.222222  0.000000 -0.444444    0.00137174  12 t-inv F
 -0.222222  0.444444  0.000000    0.00137174  12 t-inv F
  0.222222 -0.444444  0.000000    0.00137174  12 t-inv F
 -0.444444  0.000000  0.222222    0.00137174  12 t-inv F
  0.444444  0.000000 -0.222222    0.00137174  12 t-inv F
  0.000000  0.222222  0.444444    0.00137174  12 t-inv F
  0.000000 -0.222222 -0.444444    0.00137174  12 t-inv F
  0.000000 -0.444444  0.222222    0.00137174  12 t-inv F
  0.000000  0.444444 -0.222222    0.00137174  12 t-inv F
 -0.222222  0.000000  0.444444    0.00137174  12 t-inv F
  0.222222  0.000000 -0.444444    0.00137174  12 t-inv F
  0.444444  0.000000  0.222222    0.00137174  12 t-inv F
 -0.444444  0.000000 -0.222222    0.00137174  12 t-inv F
  0.000000 -0.222222  0.444444    0.00137174  12 t-inv F
  0.000000  0.222222 -0.444444    0.00137174  12 t-inv F
  0.444444 -0.222222  0.000000    0.00137174  12 t-inv F
 -0.444444  0.222222  0.000000    0.00137174  12 t-inv F
  0.222222  0.444444  0.000000    0.00137174  12 t-inv F
 -0.222222 -0.444444  0.000000    0.00137174  12 t-inv F
 -0.333333 -0.333333  0.000000    0.00137174  13 t-inv F
  0.000000  0.333333  0.333333    0.00137174  13 t-inv F
  0.000000 -0.333333 -0.333333    0.00137174  13 t-inv F
  0.333333  0.000000  0.333333    0.00137174  13 t-inv F
 -0.333333  0.000000 -0.333333    0.00137174  13 t-inv F
 -0.333333  0.333333  0.000000    0.00137174  13 t-inv F
  0.333333 -0.333333  0.000000    0.00137174  13 t-inv F
 -0.333333  0.000000  0.333333    0.00137174  13 t-inv F
  0.333333  0.000000 -0.333333    0.00137174  13 t-inv F
  0.000000 -0.333333  0.333333    0.00137174  13 t-inv F
  0.000000  0.333333 -0.333333    0.00137174  13 t-inv F
 -0.444444 -0.333333  0.000000    0.00137174  14 t-inv F
  0.000000  0.444444  0.333333    0.00137174  14 t-inv F
  0.000000 -0.444444 -0.333333    0.00137174  14 t-inv F
  0.333333  0.000000  0.444444    0.00137174  14 t-inv F
 -0.333333  0.000000 -0.444444    0.00137174  14 t-inv F
 -0.333333  0.444444  0.000000    0.00137174  14 t-inv F
  0.333333 -0.444444  0.000000    0.00137174  14 t-inv F
 -0.444444  0.000000  0.333333    0.00137174  14 t-inv F
  0.444444  0.000000 -0.333333    0.00137174  14 t-inv F
  0.000000  0.333333  0.444444    0.00137174  14 t-inv F
  0.000000 -0.333333 -0.444444    0.00137174  14 t-inv F
  0.000000 -0.444444  0.333333    0.00137174  14 t-inv F
  0.000000  0.444444 -0.333333    0.00137174  14 t-inv F
 -0.333333  0.000000  0.444444    0.00137174  14 t-inv F
  0.333333  0.000000 -0.444444    0.00137174  14 t-inv F
  0.444444  0.000000  0.333333    0.00137174  14 t-inv F
 -0.444444  0.000000 -0.333333    0.00137174  14 t-inv F
  0.000000 -0.333333  0.444444    0.00137174  14 t-inv F
  0.000000  0.333333 -0.444444    0.00137174  14 t-inv F
  0.444444 -0.333333  0.000000    0.00137174  14 t-inv F
 -0.444444  0.333333  0.000000    0.00137174  14 t-inv F
  0.333333  0.444444  0.000000    0.00137174  14 t-inv F
 -0.333333 -0.444444  0.000000    0.00137174  14 t-inv F
 -0.444444 -0.444444  0.000000    0.00137174  15 t-inv F
  0.000000  0.444444  0.444444    0.00137174  15 t-inv F
  0.000000 -0.444444 -0.444444    0.00137174  15 t-inv F
  0.444444  0.000000  0.444444    0.00137174  15 t-inv F
 -0.444444  0.000000 -0.444444    0.00137174  15 t-inv F
 -0.444444  0.444444  0.000000    0.00137174  15 t-inv F
  0.444444 -0.444444  0.000000    0.00137174  15 t-inv F
 -0.444444  0.000000  0.444444    0.00137174  15 t-inv F
  0.444444  0.000000 -0.444444    0.00137174  15 t-inv F
  0.000000 -0.444444  0.444444    0.00137174  15 t-inv F
  0.000000  0.444444 -0.444444    0.00137174  15 t-inv F
 -0.111111 -0.111111 -0.111111    0.00137174  16 t-inv F
 -0.111111  0.111111  0.111111    0.00137174  16 t-inv F
  0.111111 -0.111111 -0.111111    0.00137174  16 t-inv F
 -0.111111 -0.111111  0.111111    0.00137174  16 t-inv F
  0.111111  0.111111 -0.111111    0.00137174  16 t-inv F
  0.111111 -0.111111  0.111111    0.00137174  16 t-inv F
 -0.111111  0.111111 -0.111111    0.00137174  16 t-inv F
 -0.222222 -0.111111 -0.111111    0.00137174  17 t-inv F
  0.111111  0.222222  0.111111    0.00137174  17 t-inv F
 -0.111111 -0.222222 -0.111111    0.00137174  17 t-inv F
  0.111111  0.111111  0.222222    0.00137174  17 t-inv F
 -0.111111 -0.111111 -0.222222    0.00137174  17 t-inv F
 -0.111111  0.222222  0.111111    0.00137174  17 t-inv F
  0.111111 -0.222222 -0.111111    0.00137174  17 t-inv F
 -0.222222  0.111111  0.111111    0.00137174  17 t-inv F
  0.222222 -0.111111 -0.111111    0.00137174  17 t-inv F
 -0.111111  0.111111  0.222222    0.00137174  17 t-inv F
  0.111111 -0.111111 -0.222222    0.00137174  17 t-inv F
 -0.222222 -0.111111  0.111111    0.00137174  17 t-inv F
  0.222222  0.111111 -0.111111    0.00137174  17 t-inv F
 -0.111111 -0.222222  0.111111    0.00137174  17 t-inv F
  0.111111  0.222222 -0.111111    0.00137174  17 t-inv F
 -0.111111 -0.111111  0.222222    0.00137174  17 t-inv F
  0.111111  0.111111 -0.222222    0.00137174  17 t-inv F
  0.111111 -0.222222  0.111111    0.00137174  17 t-inv F
 -0.111111  0.222222 -0.111111    0.00137174  17 t-inv F
  0.222222 -0.111111  0.111111    0.00137174  17 t-inv F
 -0.222222  0.111111 -0.111111    0.00137174  17 t-inv F
  0.111111 -0.111111  0.222222    0.00137174  17 t-inv F
 -0.111111  0.111111 -0.222222    0.00137174  17 t-inv F
 -0.333333 -0.111111 -0.111111    0.00137174  18 t-inv F
  0.111111  0.333333  0.111111    0.00137174  18 t-inv F
 -0.111111 -0.333333 -0.111111    0.00137174  18 t-inv F
  0.111111  0.111111  0.333333    0.00137174  18 t-inv F
 -0.111111 -0.111111 -0.333333    0.00137174  18 t-inv F
 -0.111111  0.333333  0.111111    0.00137174  18 t-inv F
  0.111111 -0.333333 -0.111111    0.00137174  18 t-inv F
 -0.333333  0.111111  0.111111    0.00137174  18 t-inv F
  0.333333 -0.111111 -0.111111    0.00137174  18 t-inv F
 -0.111111  0.111111  0.333333    0.00137174  18 t-inv F
  0.111111 -0.111111 -0.333333    0.00137174  18 t-inv F
 -0.333333 -0.111111  0.111111    0.00137174  18 t-inv F
  0.333333  0.111111 -0.111111    0.00137174  18 t-inv F
 -0.111111 -0.333333  0.111111    0.00137174  18 t-inv F
  0.111111  0.333333 -0.111111    0.00137174  18 t-inv F
 -0.111111 -0.111111  0.333333    0.00137174  18 t-inv F
  0.111111  0.111111 -0.333333    0.00137174  18 t-inv F
  0.111111 -0.333333  0.111111    0.00137174  18 t-inv F
 -0.111111  0.333333 -0.111111    0.00137174  18 t-inv F
  0.333333 -0.111111  0.111111    0.00137174  18 t-inv F
 -0.333333  0.111111 -0.111111    0.00137174  18 t-inv F
  0.111111 -0.111111  0.333333    0.00137174  18 t-inv F
 -0.111111  0.111111 -0.333333    0.00137174  18 t-inv F
 -0.444444 -0.111111 -0.111111    0.00137174  19 t-inv F
  0.111111  0.444444  0.111111    0.00137174  19 t-inv F
 -0.111111 -0.444444 -0.111111    0.00137174  19 t-inv F
  0.111111  0.111111  0.444444    0.00137174  19 t-inv F
 -0.111111 -0.111111 -0.444444    0.00137174  19 t-inv F
 -0.111111  0.444444  0.111111    0.00137174  19 t-inv F
  0.111111 -0.444444 -0.111111    0.00137174  19 t-inv F
 -0.444444  0.111111  0.111111    0.00137174  19 t-inv F
  0.444444 -0.111111 -0.111111    0.00137174  19 t-inv F
 -0.111111  0.111111  0.444444    0.00137174  19 t-inv F
  0.111111 -0.111111 -0.444444    0.00137174  19 t-inv F
 -0.444444 -0.111111  0.111111    0.00137174  19 t-inv F
  0.444444  0.111111 -0.111111    0.00137174  19 t-inv F
 -0.111111 -0.444444  0.111111    0.00137174  19 t-inv F
  0.111111  0.444444 -0.111111    0.00137174  19 t-inv F
 -0.111111 -0.111111  0.444444    0.00137174  19 t-inv F
  0.111111  0.111111 -0.444444    0.00137174  19 t-inv F
  0.111111 -0.444444  0.111111    0.00137174  19 t-inv F
 -0.111111  0.444444 -0.111111    0.00137174  19 t-inv F
  0.444444 -0.111111  0.111111    0.00137174  19 t-inv F
 -0.444444  0.111111 -0.111111    0.00137174  19 t-inv F
  0.111111 -0.111111  0.444444    0.00137174  19 t-inv F
 -0.111111  0.111111 -0.444444    0.00137174  19 t-inv F
 -0.222222 -0.222222 -0.111111    0.00137174  20 t-inv F
  0.111111  0.222222  0.222222    0.00137174  20 t-inv F
 -0.111111 -0.222222 -0.222222    0.00137174  20 t-inv F
  0.222222  0.111111  0.222222    0.00137174  20 t-inv F
 -0.222222 -0.111111 -0.222222    0.00137174  20 t-inv F
 -0.222222  0.222222  0.111111    0.00137174  20 t-inv F
  0.222222 -0.222222 -0.111111    0.00137174  20 t-inv F
 -0.222222  0.111111  0.222222    0.00137174  20 t-inv F
  0.222222 -0.111111 -0.222222    0.00137174  20 t-inv F
 -0.111111  0.222222  0.222222    0.00137174  20 t-inv F
  0.111111 -0.222222 -0.222222    0.00137174  20 t-inv F
 -0.222222 -0.222222  0.111111    0.00137174  20 t-inv F
  0.222222  0.222222 -0.111111    0.00137174  20 t-inv F
 -0.111111 -0.222222  0.222222    0.00137174  20 t-inv F
  0.111111  0.222222 -0.222222    0.00137174  20 t-inv F
 -0.222222 -0.111111  0.222222    0.00137174  20 t-inv F
  0.222222  0.111111 -0.222222    0.00137174  20 t-inv F
  0.222222 -0.222222  0.111111    0.00137174  20 t-inv F
 -0.222222  0.222222 -0.111111    0.00137174  20 t-inv F
  0.222222 -0.111111  0.222222    0.00137174  20 t-inv F
 -0.222222  0.111111 -0.222222    0.00137174  20 t-inv F
  0.111111 -0.222222  0.222222    0.00137174  20 t-inv F
 -0.111111  0.222222 -0.222222    0.00137174  20 t-inv F
 -0.333333 -0.222222 -0.111111    0.00137174  21 t-inv F
  0.111111  0.333333  0.222222    0.00137174  21 t-inv F
 -0.111111 -0.333333 -0.222222    0.00137174  21 t-inv F
  0.222222  0.111111  0.333333    0.00137174  21 t-inv F
 -0.222222 -0.111111 -0.333333    0.00137174  21 t-inv F
 -0.222222  0.333333  0.111111    0.00137174  21 t-inv F
  0.222222 -0.333333 -0.111111    0.00137174  21 t-inv F
 -0.333333  0.111111  0.222222    0.00137174  21 t-inv F
  0.333333 -0.111111 -0.222222    0.00137174  21 t-inv F
 -0.111111  0.222222  0.333333    0.00137174  21 t-inv F
  0.111111 -0.222222 -0.333333    0.00137174  21 t-inv F
 -0.333333 -0.222222  0.111111    0.00137174  21 t-inv F
  0.333333  0.222222 -0.111111    0.00137174  21 t-inv F
 -0.111111 -0.333333  0.222222    0.00137174  21 t-inv F
  0.111111  0.333333 -0.222222    0.00137174  21 t-inv F
 -0.222222 -0.111111  0.333333    0.00137174  21 t-inv F
  0.222222  0.111111 -0.333333    0.00137174  21 t-inv F
  0.222222 -0.333333  0.111111    0.00137174  21 t-inv F
 -0.222222  0.333333 -0.111111    0.00137174  21 t-inv F
  0.333333 -0.111111  0.222222    0.00137174  21 t-inv F
 -0.333333  0.111111 -0.222222    0.00137174  21 t-inv F
  0.111111 -0.222222  0.333333    0.00137174  21 t-inv F
 -0.111111  0.222222 -0.333333    0.00137174  21 t-inv F
  0.111111 -0.333333 -0.222222    0.00137174  21 t-inv F
 -0.111111  0.333333  0.222222    0.00137174  21 t-inv F
  0.222222 -0.111111 -0.333333    0.00137174  21 t-inv F
 -0.222222  0.111111  0.333333    0.00137174  21 t-inv F
  0.333333 -0.222222 -0.111111    0.00137174  21 t-inv F
 -0.333333  0.222222  0.111111    0.00137174  21 t-inv F
  0.111111  0.222222 -0.333333    0.00137174  21 t-inv F
 -0.111111 -0.222222  0.333333    0.00137174  21 t-inv F
  0.222222  0.333333 -0.111111    0.00137174  21 t-inv F
 -0.222222 -0.333333  0.111111    0.00137174  21 t-inv F
  0.333333  0.111111 -0.222222    0.00137174  21 t-inv F
 -0.333333 -0.111111  0.222222    0.00137174  21 t-inv F
 -0.222222  0.111111 -0.333333    0.00137174  21 t-inv F
  0.222222 -0.111111  0.333333    0.00137174  21 t-inv F
 -0.333333  0.222222 -0.111111    0.00137174  21 t-inv F
  0.333333 -0.222222  0.111111    0.00137174  21 t-inv F
 -0.111111  0.333333 -0.222222    0.00137174  21 t-inv F
  0.111111 -0.333333  0.222222    0.00137174  21 t-inv F
 -0.333333 -0.111111 -0.222222    0.00137174  21 t-inv F
  0.333333  0.111111  0.222222    0.00137174  21 t-inv F
 -0.222222 -0.333333 -0.111111    0.00137174  21 t-inv F
  0.222222  0.333333  0.111111    0.00137174  21 t-inv F
 -0.111111 -0.222222 -0.333333    0.00137174  21 t-inv F
  0.111111  0.222222  0.333333    0.00137174  21 t-inv F
 -0.444444 -0.222222 -0.111111    0.00137174  22 t-inv F
  0.111111  0.444444  0.222222    0.00137174  22 t-inv F
 -0.111111 -0.444444 -0.222222    0.00137174  22 t-inv F
  0.222222  0.111111  0.444444    0.00137174  22 t-inv F
 -0.222222 -0.111111 -0.444444    0.00137174  22 t-inv F
 -0.222222  0.444444  0.111111    0.00137174  22 t-inv F
  0.222222 -0.444444 -0.111111    0.00137174  22 t-inv F
 -0.444444  0.111111  0.222222    0.00137174  22 t-inv F
  0.444444 -0.111111 -0.222222    0.00137174  22 t-inv F
 -0.111111  0.222222  0.444444    0.00137174  22 t-inv F
  0.111111 -0.222222 -0.444444    0.00137174  22 t-inv F
 -0.444444 -0.222222  0.111111    0.00137174  22 t-inv F
  0.444444  0.222222 -0.111111    0.00137174  22 t-inv F
 -0.111111 -0.444444  0.222222    0.00137174  22 t-inv F
  0.111111  0.444444 -0.222222    0.00137174  22 t-inv F
 -0.222222 -0.111111  0.444444    0.00137174  22 t-inv F
  0.222222  0.111111 -0.444444    0.00137174  22 t-inv F
  0.222222 -0.444444  0.111111    0.00137174  22 t-inv F
 -0.222222  0.444444 -0.111111    0.00137174  22 t-inv F
  0.444444 -0.111111  0.222222    0.00137174  22 t-inv F
 -0.444444  0.111111 -0.222222    0.00137174  22 t-inv F
  0.111111 -0.222222  0.444444    0.00137174  22 t-inv F
 -0.111111  0.222222 -0.444444    0.00137174  22 t-inv F
  0.111111 -0.444444 -0.222222    0.00137174  22 t-inv F
 -0.111111  0.444444  0.222222    0.00137174  22 t-inv F
  0.222222 -0.111111 -0.444444    0.00137174  22 t-inv F
 -0.222222  0.111111  0.444444    0.00137174  22 t-inv F
  0.444444 -0.222222 -0.111111    0.00137174  22 t-inv F
 -0.444444  0.222222  0.111111    0.00137174  22 t-inv F
  0.111111  0.222222 -0.444444    0.00137174  22 t-inv F
 -0.111111 -0.222222  0.444444    0.00137174  22 t-inv F
  0.222222  0.444444 -0.111111    0.00137174  22 t-inv F
 -0.222222 -0.444444  0.111111    0.00137174  22 t-inv F
  0.444444  0.111111 -0.222222    0.00137174  22 t-inv F
 -0.444444 -0.111111  0.222222    0.00137174  22 t-inv F
 -0.222222  0.111111 -0.444444    0.00137174  22 t-inv F
  0.222222 -0.111111  0.444444    0.00137174  22 t-inv F
 -0.444444  0.222222 -0.111111    0.00137174  22 t-inv F
  0.444444 -0.222222  0.111111    0.00137174  22 t-inv F
 -0.111111  0.444444 -0.222222    0.00137174  22 t-inv F
  0.111111 -0.444444  0.222222    0.00137174  22 t-inv F
 -0.444444 -0.111111 -0.222222    0.00137174  22 t-inv F
  0.444444  0.111111  0.222222    0.00137174  22 t-inv F
 -0.222222 -0.444444 -0.111111    0.00137174  22 t-inv F
  0.222222  0.444444  0.111111    0.00137174  22 t-inv F
 -0.111111 -0.222222 -0.444444    0.00137174  22 t-inv F
  0.111111  0.222222  0.444444    0.00137174  22 t-inv F
 -0.333333 -0.333333 -0.111111    0.00137174  23 t-inv F
  0.111111  0.333333  0.333333    0.00137174  23 t-inv F
 -0.111111 -0.333333 -0.333333    0.00137174  23 t-inv F
  0.333333  0.111111  0.333333    0.00137174  23 t-inv F
 -0.333333 -0.111111 -0.333333    0.00137174  23 t-inv F
 -0.333333  0.333333  0.111111    0.00137174  23 t-inv F
  0.333333 -0.333333 -0.111111    0.00137174  23 t-inv F
 -0.333333  0.111111  0.333333    0.00137174  23 t-inv F
  0.333333 -0.111111 -0.333333    0.00137174  23 t-inv F
 -0.111111  0.333333  0.333333    0.00137174  23 t-inv F
  0.111111 -0.333333 -0.333333    0.00137174  23 t-inv F
 -0.333333 -0.333333  0.111111    0.00137174  23 t-inv F
  0.333333  0.333333 -0.111111    0.00137174  23 t-inv F
 -0.111111 -0.333333  0.333333    0.00137174  23 t-inv F
  0.111111  0.333333 -0.333333    0.00137174  23 t-inv F
 -0.333333 -0.111111  0.333333    0.00137174  23 t-inv F
  0.333333  0.111111 -0.333333    0.00137174  23 t-inv F
  0.333333 -0.333333  0.111111    0.00137174  23 t-inv F
 -0.333333  0.333333 -0.111111    0.00137174  23 t-inv F
  0.333333 -0.111111  0.333333    0.00137174  23 t-inv F
 -0.333333  0.111111 -0.333333    0.00137174  23 t-inv F
  0.111111 -0.333333  0.333333    0.00137174  23 t-inv F
 -0.111111  0.333333 -0.333333    0.00137174  23 t-inv F
 -0.444444 -0.333333 -0.111111    0.00137174  24 t-inv F
  0.111111  0.444444  0.333333    0.00137174  24 t-inv F
 -0.111111 -0.444444 -0.333333    0.00137174  24 t-inv F
  0.333333  0.111111  0.444444    0.00137174  24 t-inv F
 -0.333333 -0.111111 -0.444444    0.00137174  24 t-inv F
 -0.333333  0.444444  0.111111    0.00137174  24 t-inv F
  0.333333 -0.444444 -0.111111    0.00137174  24 t-inv F
 -0.444444  0.111111  0.333333    0.00137174  24 t-inv F
  0.444444 -0.111111 -0.333333    0.00137174  24 t-inv F
 -0.111111  0.333333  0.444444    0.00137174  24 t-inv F
  0.111111 -0.333333 -0.444444    0.00137174  24 t-inv F
 -0.444444 -0.333333  0.111111    0.00137174  24 t-inv F
  0.444444  0.333333 -0.111111    0.00137174  24 t-inv F
 -0.111111 -0.444444  0.333333    0.00137174  24 t-inv F
  0.111111  0.444444 -0.333333    0.00137174  24 t-inv F
 -0.333333 -0.111111  0.444444    0.00137174  24 t-inv F
  0.333333  0.111111 -0.444444    0.00137174  24 t-inv F
  0.333333 -0.444444  0.111111    0.00137174  24 t-inv F
 -0.333333  0.444444 -0.111111    0.00137174  24 t-inv F
  0.444444 -0.111111  0.333333    0.00137174  24 t-inv F
 -0.444444  0.111111 -0.333333    0.00137174  24 t-inv F
  0.111111 -0.333333  0.444444    0.00137174  24 t-inv F
 -0.111111  0.333333 -0.444444    0.00137174  24 t-inv F
  0.111111 -0.444444 -0.333333    0.00137174  24 t-inv F
 -0.111111  0.444444  0.333333    0.00137174  24 t-inv F
  0.333333 -0.111111 -0.444444    0.00137174  24 t-inv F
 -0.333333  0.111111  0.444444    0.00137174  24 t-inv F
  0.444444 -0.333333 -0.111111    0.00137174  24 t-inv F
 -0.444444  0.333333  0.111111    0.00137174  24 t-inv F
  0.111111  0.333333 -0.444444    0.00137174  24 t-inv F
 -0.111111 -0.333333  0.444444    0.00137174  24 t-inv F
  0.333333  0.444444 -0.111111    0.00137174  24 t-inv F
 -0.333333 -0.444444  0.111111    0.00137174  24 t-inv F
  0.444444  0.111111 -0.333333    0.00137174  24 t-inv F
 -0.444444 -0.111111  0.333333    0.00137174  24 t-inv F
 -0.333333  0.111111 -0.444444    0.00137174  24 t-inv F
  0.333333 -0.111111  0.444444    0.00137174  24 t-inv F
 -0.444444  0.333333 -0.111111    0.00137174  24 t-inv F
  0.444444 -0.333333  0.111111    0.00137174  24 t-inv F
 -0.111111  0.444444 -0.333333    0.00137174  24 t-inv F
  0.111111 -0.444444  0.333333    0.00137174  24 t-inv F
 -0.444444 -0.111111 -0.333333    0.00137174  24 t-inv F
  0.444444  0.111111  0.333333    0.00137174  24 t-inv F
 -0.333333 -0.444444 -0.111111    0.00137174  24 t-inv F
  0.333333  0.444444  0.111111    0.00137174  24 t-inv F
 -0.111111 -0.333333 -0.444444    0.00137174  24 t-inv F
  0.111111  0.333333  0.444444    0.00137174  24 t-inv F
 -0.444444 -0.444444 -0.111111    0.00137174  25 t-inv F
  0.111111  0.444444  0.444444    0.00137174  25 t-inv F
 -0.111111 -0.444444 -0.444444    0.00137174  25 t-inv F
  0.444444  0.111111  0.444444    0.00137174  25 t-inv F
 -0.444444 -0.111111 -0.444444    0.00137174  25 t-inv F
 -0.444444  0.444444  0.111111    0.00137174  25 t-inv F
  0.444444 -0.444444 -0.111111    0.00137174  25 t-inv F
 -0.444444  0.111111  0.444444    0.00137174  25 t-inv F
  0.444444 -0.111111 -0.444444    0.00137174  25 t-inv F
 -0.111111  0.444444  0.444444    0.00137174  25 t-inv F
  0.111111 -0.444444 -0.444444    0.00137174  25 t-inv F
 -0.444444 -0.444444  0.111111    0.00137174  25 t-inv F
  0.444444  0.444444 -0.111111    0.00137174  25 t-inv F
 -0.111111 -0.444444  0.444444    0.00137174  25 t-inv F
  0.111111  0.444444 -0.444444    0.00137174  25 t-inv F
 -0.444444 -0.111111  0.444444    0.00137174  25 t-inv F
  0.444444  0.111111 -0.444444    0.00137174  25 t-inv F
  0.444444 -0.444444  0.111111    0.00137174  25 t-inv F
 -0.444444  0.444444 -0.111111    0.00137174  25 t-inv F
  0.444444 -0.111111  0.444444    0.00137174  25 t-inv F
 -0.444444  0.111111 -0.444444    0.00137174  25 t-inv F
  0.111111 -0.444444  0.444444    0.00137174  25 t-inv F
 -0.111111  0.444444 -0.444444    0.00137174  25 t-inv F
 -0.222222 -0.222222 -0.222222    0.00137174  26 t-inv F
 -0.222222  0.222222  0.222222    0.00137174  26 t-inv F
  0.222222 -0.222222 -0.222222    0.00137174  26 t-inv F
 -0.222222 -0.222222  0.222222    0.00137174  26 t-inv F
  0.222222  0.222222 -0.222222    0.00137174  26 t-inv F
  0.222222 -0.222222  0.222222    0.00137174  26 t-inv F
 -0.222222  0.222222 -0.222222    0.00137174  26 t-inv F
 -0.333333 -0.222222 -0.222222    0.00137174  27 t-inv F
  0.222222  0.333333  0.222222    0.00137174  27 t-inv F
 -0.222222 -0.333333 -0.222222    0.00137174  27 t-inv F
  0.222222  0.222222  0.333333    0.00137174  27 t-inv F
 -0.222222 -0.222222 -0.333333    0.00137174  27 t-inv F
 -0.222222  0.333333  0.222222    0.00137174  27 t-inv F
  0.222222 -0.333333 -0.222222    0.00137174  27 t-inv F
 -0.333333  0.222222  0.222222    0.00137174  27 t-inv F
  0.333333 -0.222222 -0.222222    0.00137174  27 t-inv F
 -0.222222  0.222222  0.333333    0.00137174  27 t-inv F
  0.222222 -0.222222 -0.333333    0.00137174  27 t-inv F
 -0.333333 -0.222222  0.222222    0.00137174  27 t-inv F
  0.333333  0.222222 -0.222222    0.00137174  27 t-inv F
 -0.222222 -0.333333  0.222222    0.00137174  27 t-inv F
  0.222222  0.333333 -0.222222    0.00137174  27 t-inv F
 -0.222222 -0.222222  0.333333    0.00137174  27 t-inv F
  0.222222  0.222222 -0.333333    0.00137174  27 t-inv F
  0.222222 -0.333333  0.222222    0.00137174  27 t-inv F
 -0.222222  0.333333 -0.222222    0.00137174  27 t-inv F
  0.333333 -0.222222  0.222222    0.00137174  27 t-inv F
 -0.333333  0.222222 -0.222222    0.00137174  27 t-inv F
  0.222222 -0.222222  0.333333    0.00137174  27 t-inv F
 -0.222222  0.222222 -0.333333    0.00137174  27 t-inv F
 -0.444444 -0.222222 -0.222222    0.00137174  28 t-inv F
  0.222222  0.444444  0.222222    0.00137174  28 t-inv F
 -0.222222 -0.444444 -0.222222    0.00137174  28 t-inv F
  0.222222  0.222222  0.444444    0.00137174  28 t-inv F
 -0.222222 -0.222222 -0.444444    0.00137174  28 t-inv F
 -0.222222  0.444444  0.222222    0.00137174  28 t-inv F
  0.222222 -0.444444 -0.222222    0.00137174  28 t-inv F
 -0.444444  0.222222  0.222222    0.00137174  28 t-inv F
  0.444444 -0.222222 -0.222222    0.00137174  28 t-inv F
 -0.222222  0.222222  0.444444    0.00137174  28 t-inv F
  0.222222 -0.222222 -0.444444    0.00137174  28 t-inv F
 -0.444444 -0.222222  0.222222    0.00137174  28 t-inv F
  0.444444  0.222222 -0.222222    0.00137174  28 t-inv F
 -0.222222 -0.444444  0.222222    0.00137174  28 t-inv F
  0.222222  0.444444 -0.222222    0.00137174  28 t-inv F
 -0.222222 -0.222222  0.444444    0.00137174  28 t-inv F
  0.222222  0.222222 -0.444444    0.00137174  28 t-inv F
  0.222222 -0.444444  0.222222    0.00137174  28 t-inv F
 -0.222222  0.444444 -0.222222    0.00137174  28 t-inv F
  0.444444 -0.222222  0.222222    0.00137174  28 t-inv F
 -0.444444  0.222222 -0.222222    0.00137174  28 t-inv F
  0.222222 -0.222222  0.444444    0.00137174  28 t-inv F
 -0.222222  0.222222 -0.444444    0.00137174  28 t-inv F
 -0.333333 -0.333333 -0.222222    0.00137174  29 t-inv F
  0.222222  0.333333  0.333333    0.00137174  29 t-inv F
 -0.222222 -0.333333 -0.333333    0.00137174  29 t-inv F
  0.333333  0.222222  0.333333    0.00137174  29 t-inv F
 -0.333333 -0.222222 -0.333333    0.00137174  29 t-inv F
 -0.333333  0.333333  0.222222    0.00137174  29 t-inv F
  0.333333 -0.333333 -0.222222    0.00137174  29 t-inv F
 -0.333333  0.222222  0.333333    0.00137174  29 t-inv F
  0.333333 -0.222222 -0.333333    0.00137174  29 t-inv F
 -0.222222  0.333333  0.333333    0.00137174  29 t-inv F
  0.222222 -0.333333 -0.333333    0.00137174  29 t-inv F
 -0.333333 -0.333333  0.222222    0.00137174  29 t-inv F
  0.333333  0.333333 -0.222222    0.00137174  29 t-inv F
 -0.222222 -0.333333  0.333333    0.00137174  29 t-inv F
  0.222222  0.333333 -0.333333    0.00137174  29 t-inv F
 -0.333333 -0.222222  0.333333    0.00137174  29 t-inv F
  0.333333  0.222222 -0.333333    0.00137174  29 t-inv F
  0.333333 -0.333333  0.222222    0.00137174  29 t-inv F
 -0.333333  0.333333 -0.222222    0.00137174  29 t-inv F
  0.333333 -0.222222  0.333333    0.00137174  29 t-inv F
 -0.333333  0.222222 -0.333333    0.00137174  29 t-inv F
  0.222222 -0.333333  0.333333    0.00137174  29 t-inv F
 -0.222222  0.333333 -0.333333    0.00137174  29 t-inv F
 -0.444444 -0.333333 -0.222222    0.00137174  30 t-inv F
  0.222222  0.444444  0.333333    0.00137174  30 t-inv F
 -0.222222 -0.444444 -0.333333    0.00137174  30 t-inv F
  0.333333  0.222222  0.444444    0.00137174  30 t-inv F
 -0.333333 -0.222222 -0.444444    0.00137174  30 t-inv F
 -0.333333  0.444444  0.222222    0.00137174  30 t-inv F
  0.333333 -0.444444 -0.222222    0.00137174  30 t-inv F
 -0.444444  0.222222  0.333333    0.00137174  30 t-inv F
  0.444444 -0.222222 -0.333333    0.00137174  30 t-inv F
 -0.222222  0.333333  0.444444    0.00137174  30 t-inv F
  0.222222 -0.333333 -0.444444    0.00137174  30 t-inv F
 -0.444444 -0.333333  0.222222    0.00137174  30 t-inv F
  0.444444  0.333333 -0.222222    0.00137174  30 t-inv F
 -0.222222 -0.444444  0.333333    0.00137174  30 t-inv F
  0.222222  0.444444 -0.333333    0.00137174  30 t-inv F
 -0.333333 -0.222222  0.444444    0.00137174  30 t-inv F
  0.333333  0.222222 -0.444444    0.00137174  30 t-inv F
  0.333333 -0.444444  0.222222    0.00137174  30 t-inv F
 -0.333333  0.444444 -0.222222    0.00137174  30 t-inv F
  0.444444 -0.222222  0.333333    0.00137174  30 t-inv F
 -0.444444  0.222222 -0.333333    0.00137174  30 t-inv F
  0.222222 -0.333333  0.444444    0.00137174  30 t-inv F
 -0.222222  0.333333 -0.444444    0.00137174  30 t-inv F
  0.222222 -0.444444 -0.333333    0.00137174  30 t-inv F
 -0.222222  0.444444  0.333333    0.00137174  30 t-inv F
  0.333333 -0.222222 -0.444444    0.00137174  30 t-inv F
 -0.333333  0.222222  0.444444    0.00137174  30 t-inv F
  0.444444 -0.333333 -0.222222    0.00137174  30 t-inv F
 -0.444444  0.333333  0.222222    0.00137174  30 t-inv F
  0.222222  0.333333 -0.444444    0.00137174  30 t-inv F
 -0.222222 -0.333333  0.444444    0.00137174  30 t-inv F
  0.333333  0.444444 -0.222222    0.00137174  30 t-inv F
 -0.333333 -0.444444  0.222222    0.00137174  30 t-inv F
  0.444444  0.222222 -0.333333    0.00137174  30 t-inv F
 -0.444444 -0.222222  0.333333    0.00137174  30 t-inv F
 -0.333333  0.222222 -0.444444    0.00137174  30 t-inv F
  0.333333 -0.222222  0.444444    0.00137174  30 t-inv F
 -0.444444  0.333333 -0.222222    0.00137174  30 t-inv F
  0.444444 -0.333333  0.222222    0.00137174  30 t-inv F
 -0.222222  0.444444 -0.333333    0.00137174  30 t-inv F
  0.222222 -0.444444  0.333333    0.00137174  30 t-inv F
 -0.444444 -0.222222 -0.333333    0.00137174  30 t-inv F
  0.444444  0.222222  0.333333    0.00137174  30 t-inv F
 -0.333333 -0.444444 -0.222222    0.00137174  30 t-inv F
  0.333333  0.444444  0.222222    0.00137174  30 t-inv F
 -0.222222 -0.333333 -0.444444    0.00137174  30 t-inv F
  0.222222  0.333333  0.444444    0.00137174  30 t-inv F
 -0.444444 -0.444444 -0.222222    0.00137174  31 t-inv F
  0.222222  0.444444  0.444444    0.00137174  31 t-inv F
 -0.222222 -0.444444 -0.444444    0.00137174  31 t-inv F
  0.444444  0.222222  0.444444    0.00137174  31 t-inv F
 -0.444444 -0.222222 -0.444444    0.00137174  31 t-inv F
 -0.444444  0.444444  0.222222    0.00137174  31 t-inv F
  0.444444 -0.444444 -0.222222    0.00137174  31 t-inv F
 -0.444444  0.222222  0.444444    0.00137174  31 t-inv F
  0.444444 -0.222222 -0.444444    0.00137174  31 t-inv F
 -0.222222  0.444444  0.444444    0.00137174  31 t-inv F
  0.222222 -0.444444 -0.444444    0.00137174  31 t-inv F
 -0.444444 -0.444444  0.222222    0.00137174  31 t-inv F
  0.444444  0.444444 -0.222222    0.00137174  31 t-inv F
 -0.222222 -0.444444  0.444444    0.00137174  31 t-inv F
  0.222222  0.444444 -0.444444    0.00137174  31 t-inv F
 -0.444444 -0.222222  0.444444    0.00137174  31 t-inv F
  0.444444  0.222222 -0.444444    0.00137174  31 t-inv F
  0.444444 -0.444444  0.222222    0.00137174  31 t-inv F
 -0.444444  0.444444 -0.222222    0.00137174  31 t-inv F
  0.444444 -0.222222  0.444444    0.00137174  31 t-inv F
 -0.444444  0.222222 -0.444444    0.00137174  31 t-inv F
  0.222222 -0.444444  0.444444    0.00137174  31 t-inv F
 -0.222222  0.444444 -0.444444    0.00137174  31 t-inv F
 -0.333333 -0.333333 -0.333333    0.00137174  32 t-inv F
 -0.333333  0.333333  0.333333    0.00137174  32 t-inv F
  0.333333 -0.333333 -0.333333    0.00137174  32 t-inv F
 -0.333333 -0.333333  0.333333    0.00137174  32 t-inv F
  0.333333  0.333333 -0.333333    0.00137174  32 t-inv F
  0.333333 -0.333333  0.333333    0.00137174  32 t-inv F
 -0.333333  0.333333 -0.333333    0.00137174  32 t-inv F
 -0.444444 -0.333333 -0.333333    0.00137174  33 t-inv F
  0.333333  0.444444  0.333333    0.00137174  33 t-inv F
 -0.333333 -0.444444 -0.333333    0.00137174  33 t-inv F
  0.333333  0.333333  0.444444    0.00137174  33 t-inv F
 -0.333333 -0.333333 -0.444444    0.00137174  33 t-inv F
 -0.333333  0.444444  0.333333    0.00137174  33 t-inv F
  0.333333 -0.444444 -0.333333    0.00137174  33 t-inv F
 -0.444444  0.333333  0.333333    0.00137174  33 t-inv F
  0.444444 -0.333333 -0.333333    0.00137174  33 t-inv F
 -0.333333  0.333333  0.444444    0.00137174  33 t-inv F
  0.333333 -0.333333 -0.444444    0.00137174  33 t-inv F
 -0.444444 -0.333333  0.333333    0.00137174  33 t-inv F
  0.444444  0.333333 -0.333333    0.00137174  33 t-inv F
 -0.333333 -0.444444  0.333333    0.00137174  33 t-inv F
  0.333333  0.444444 -0.333333    0.00137174  33 t-inv F
 -0.333333 -0.333333  0.444444    0.00137174  33 t-inv F
  0.333333  0.333333 -0.444444    0.00137174  33 t-inv F
  0.333333 -0.444444  0.333333    0.00137174  33 t-inv F
 -0.333333  0.444444 -0.333333    0.00137174  33 t-inv F
  0.444444 -0.333333  0.333333    0.00137174  33 t-inv F
 -0.444444  0.333333 -0.333333    0.00137174  33 t-inv F
  0.333333 -0.333333  0.444444    0.00137174  33 t-inv F
 -0.333333  0.333333 -0.444444    0.00137174  33 t-inv F
 -0.444444 -0.444444 -0.333333    0.00137174  34 t-inv F
  0.333333  0.444444  0.444444    0.00137174  34 t-inv F
 -0.333333 -0.444444 -0.444444    0.00137174  34 t-inv F
  0.444444  0.333333  0.444444    0.00137174  34 t-inv F
 -0.444444 -0.333333 -0.444444    0.00137174  34 t-inv F
 -0.444444  0.444444  0.333333    0.00137174  34 t-inv F
  0.444444 -0.444444 -0.333333    0.00137174  34 t-inv F
 -0.444444  0.333333  0.444444    0.00137174  34 t-inv F
  0.444444 -0.333333 -0.444444    0.00137174  34 t-inv F
 -0.333333  0.444444  0.444444    0.00137174  34 t-inv F
  0.333333 -0.444444 -0.444444    0.00137174  34 t-inv F
 -0.444444 -0.444444  0.333333    0.00137174  34 t-inv F
  0.444444  0.444444 -0.333333    0.00137174  34 t-inv F
 -0.333333 -0.444444  0.444444    0.00137174  34 t-inv F
  0.333333  0.444444 -0.444444    0.00137174  34 t-inv F
 -0.444444 -0.333333  0.444444    0.00137174  34 t-inv F
  0.444444  0.333333 -0.444444    0.00137174  34 t-inv F
  0.444444 -0.444444  0.333333    0.00137174  34 t-inv F
 -0.444444  0.444444 -0.333333    0.00137174  34 t-inv F
  0.444444 -0.333333  0.444444    0.00137174  34 t-inv F
 -0.444444  0.333333 -0.444444    0.00137174  34 t-inv F
  0.333333 -0.444444  0.444444    0.00137174  34 t-inv F
 -0.333333  0.444444 -0.444444    0.00137174  34 t-inv F
 -0.444444 -0.444444 -0.444444    0.00137174  35 t-inv F
 -0.444444  0.444444  0.444444    0.00137174  35 t-inv F
  0.444444 -0.444444 -0.444444    0.00137174  35 t-inv F
 -0.444444 -0.444444  0.444444    0.00137174  35 t-inv F
  0.444444  0.444444 -0.444444    0.00137174  35 t-inv F
  0.444444 -0.444444  0.444444    0.00137174  35 t-inv F
 -0.444444  0.444444 -0.444444    0.00137174  35 t-inv F


--------------------------------------------------------------------------------------------------------




 Dimension of arrays:
   k-points           NKPTS =     35   k-points in BZ     NKDIM =     35   number of bands    NBANDS=     20
   number of dos      NEDOS =    301   number of ions     NIONS =      5
   non local maximal  LDIM  =      6   non local SUM 2l+1 LMDIM =     18
   total plane-waves  NPLWV =   8000
   max r-space proj   IRMAX =      1   max aug-charges    IRDMAX=   8723
   dimension x,y,z NGX =    20 NGY =   20 NGZ =   20
   dimension x,y,z NGXF=    40 NGYF=   40 NGZF=   40
   support grid    NGXF=    40 NGYF=   40 NGZF=   40
   ions per type =               1   1   3
   NGX,Y,Z   is equivalent  to a cutoff of   8.64,  8.64,  8.64 a.u.
   NGXF,Y,Z  is equivalent  to a cutoff of  17.29, 17.29, 17.29 a.u.

 SYSTEM =  SrVO3                                   
 POSCAR =  SrVO3                                   

 Startparameter for this run:
   NWRITE =      2    write-flag & timer
   PREC   = normal    normal or accurate (medium, high low for compatibility)
   ISTART =      0    job   : 0-new  1-cont  2-samecut
   ICHARG =      2    charge: 1-file 2-atom 10-const
   ISPIN  =      1    spin polarized calculation?
   LNONCOLLINEAR =      F non collinear calculations
   LSORBIT =      F    spin-orbit coupling
   INIWAV =      1    electr: 0-lowe 1-rand  2-diag
   LASPH  =      T    aspherical Exc in radial PAW
   METAGGA=      F    non-selfconsistent MetaGGA calc.

 Electronic Relaxation 1
   ENCUT  =  400.0 eV  29.40 Ry    5.42 a.u.   6.27  6.27  6.27*2*pi/ulx,y,z
   ENINI  =  400.0     initial cutoff
   ENAUG  =  605.4 eV  augmentation charge cutoff
   NELM   =     60;   NELMIN=  2; NELMDL= -5     # of ELM steps 
   EDIFF  = 0.1E-07   stopping-criterion for ELM
   LREAL  =      F    real-space projection
   NLSPLINE    = F    spline interpolate recip. space projectors
   LCOMPAT=      F    compatible to vasp.4.4
   GGA_COMPAT  = T    GGA compatible to vasp.4.4-vasp.4.6
   LMAXPAW     = -100 max onsite density
   LMAXMIX     =    2 max onsite mixed and CHGCAR
   VOSKOWN=      0    Vosko Wilk Nusair interpolation
   ROPT   =    0.00000   0.00000   0.00000
 Ionic relaxation
   EDIFFG = 0.1E-06   stopping-criterion for IOM
   NSW    =      0    number of steps for IOM
   NBLOCK =      1;   KBLOCK =      1    inner block; outer block 
   IBRION =     -1    ionic relax: 0-MD 1-quasi-New 2-CG
   NFREE  =      0    steps in history (QN), initial steepest desc. (CG)
   ISIF   =      2    stress and relaxation
   IWAVPR =     10    prediction:  0-non 1-charg 2-wave 3-comb
   ISYM   =      2    0-nonsym 1-usesym 2-fastsym
   LCORR  =      T    Harris-Foulkes like correction to forces

   POTIM  = 0.5000    time-step for ionic-motion
   TEIN   =    0.0    initial temperature
   TEBEG  =    0.0;   TEEND  =   0.0 temperature during run
   SMASS  =  -3.00    Nose mass-parameter (am)
   estimated Nose-frequenzy (Omega)   =  0.10E-29 period in steps = 0.13E+47 mass=  -0.338E-27a.u.
   SCALEE = 1.0000    scale energy and forces
   NPACO  =    256;   APACO  = 16.0  distance and # of slots for P.C.
   PSTRESS=    0.0 pullay stress

  Mass of Ions in am
   POMASS =  87.62 50.94 16.00
  Ionic Valenz
   ZVAL   =  10.00  5.00  6.00
  Atomic Wigner-Seitz radii
   RWIGS  =  -1.00 -1.00 -1.00
  virtual crystal weights 
   VCA    =   1.00  1.00  1.00
   NELECT =      33.0000    total number of electrons
   NUPDOWN=      -1.0000    fix difference up-down

 DOS related values:
   EMIN   =   6.00;   EMAX   =  9.00  energy-range for DOS
   EFERMI =   0.00
   ISMEAR =     2;   SIGMA  =   0.20  broadening in eV -4-tet -1-fermi 0-gaus

 Electronic relaxation 2 (details)
   IALGO  =     38    algorithm
   LDIAG  =      T    sub-space diagonalisation (order eigenvalues)
   LSUBROT=      F    optimize rotation matrix (better conditioning)
   TURBO    =      0    0=normal 1=particle mesh
   IRESTART =      0    0=no restart 2=restart with 2 vectors
   NREBOOT  =      0    no. of reboots
   NMIN     =      0    reboot dimension
   EREF     =   0.00    reference energy to select bands
   IMIX   =      4    mixing-type and parameters
     AMIX     =   0.40;   BMIX     =  1.00
     AMIX_MAG =   1.60;   BMIX_MAG =  1.00
     AMIN     =   0.10
     WC   =   100.;   INIMIX=   1;  MIXPRE=   1;  MAXMIX= -45

 Intra band minimization:
   WEIMIN = 0.0000     energy-eigenvalue tresh-hold
   EBREAK =  0.13E-09  absolut break condition
   DEPER  =   0.30     relativ break condition  

   TIME   =   0.40     timestep for ELM

  volume/ion in A,a.u.               =      11.38        76.81
  Fermi-wavevector in a.u.,A,eV,Ry     =   1.365143  2.579746 25.356027  1.863615
  Thomas-Fermi vector in A             =   2.491397
 
 Write flags
   LWAVE        =      T    write WAVECAR
   LDOWNSAMPLE  =      F    k-point downsampling of WAVECAR
   LCHARG       =      T    write CHGCAR
   LVTOT        =      F    write LOCPOT, total local potential
   LVHAR        =      F    write LOCPOT, Hartree potential only
   LELF         =      F    write electronic localiz. function (ELF)
   LORBIT       =     14    0 simple, 1 ext, 2 COOP (PROOUT), +10 PAW based schemes


 Dipole corrections
   LMONO  =      F    monopole corrections only (constant potential shift)
   LDIPOL =      F    correct potential (dipole corrections)
   IDIPOL =      0    1-x, 2-y, 3-z, 4-all directions 
   EPSILON=  1.0000000 bulk dielectric constant

 Exchange correlation treatment:
   GGA     =    --    GGA type
   LEXCH   =     8    internal setting for exchange type
   VOSKOWN=      0    Vosko Wilk Nusair interpolation
   LHFCALC =     F    Hartree Fock is set to
   LHFONE  =     F    Hartree Fock one center treatment
   AEXX    =    0.0000 exact exchange contribution

 Linear response parameters
   LEPSILON=     F    determine dielectric tensor
   LRPA    =     F    only Hartree local field effects (RPA)
   LNABLA  =     F    use nabla operator in PAW spheres
   LVEL    =     F    velocity operator in full k-point grid
   LINTERFAST=   F  fast interpolation
   KINTER  =     0    interpolate to denser k-point grid
   CSHIFT  =0.1000    complex shift for real part using Kramers Kronig
   OMEGAMAX=  -1.0    maximum frequency
   DEG_THRESHOLD= 0.2000000E-02 threshold for treating states as degnerate
   RTIME   =   -0.100 relaxation time in fs
  (WPLASMAI=    0.000 imaginary part of plasma frequency in eV, 0.658/RTIME)
   DFIELD  = 0.0000000 0.0000000 0.0000000 field for delta impulse in time
 
 Orbital magnetization related:
   ORBITALMAG=     F  switch on orbital magnetization
   LCHIMAG   =     F  perturbation theory with respect to B field
   DQ        =  0.001000  dq finite difference perturbation B field
   LLRAUG    =     F  two centre corrections for induced B field



--------------------------------------------------------------------------------------------------------


 Static calculation
 charge density and potential will be updated during run
 non-spin polarized calculation
 Variant of blocked Davidson
 Davidson routine will perform the subspace rotation
 perform sub-space diagonalisation
    after iterative eigenvector-optimisation
 modified Broyden-mixing scheme, WC =      100.0
 initial mixing is a Kerker type mixing with AMIX =  0.4000 and BMIX =      1.0000
 Hartree-type preconditioning will be used
 using additional bands            3
 reciprocal scheme for non local part
 use partial core corrections
 calculate Harris-corrections to forces 
   (improved forces if not selfconsistent)
 use gradient corrections 
 use of overlap-Matrix (Vanderbilt PP)
 Methfessel and Paxton  Order N= 2 SIGMA  =   0.20


--------------------------------------------------------------------------------------------------------


  energy-cutoff  :      400.00
  volume of cell :       56.91
      direct lattice vectors                 reciprocal lattice vectors
     3.846520000  0.000000000  0.000000000     0.259975250  0.000000000  0.000000000
     0.000000000  3.846520000  0.000000000     0.000000000  0.259975250  0.000000000
     0.000000000  0.000000000  3.846520000     0.000000000  0.000000000  0.259975250

  length of vectors
     3.846520000  3.846520000  3.846520000     0.259975250  0.259975250  0.259975250


 
 k-points in units of 2pi/SCALE and weight: read from INCAR                         
   0.00000000  0.00000000  0.00000000       0.001
[...]
      5     -11.0993      2.00000
      6     -10.8553      2.00000
      7     -10.8304      2.00000
      8      -1.5027      2.00000
      9      -1.2812      2.00000
     10      -1.0549      2.00000
     11       0.1384      2.00000
     12       0.1885      2.00000
     13       0.9387      2.00000
     14       2.0125      2.00000
     15       2.0496      2.00000
     16       3.2386      2.00000
     17       6.2306      0.00000
     18       6.2437      0.00000
     19       6.5533      0.00000
     20       7.9582      0.00000

 k-point    26 :       0.2222    0.2222    0.2222
  band No.  band energies     occupation 
      1     -29.1276      2.00000
      2     -14.1521      2.00000
      3     -13.2236      2.00000
      4     -13.2236      2.00000
      5     -11.0922      2.00000
      6     -11.0922      2.00000
      7     -10.7546      2.00000
      8      -0.8709      2.00000
      9      -0.1918      2.00000
     10      -0.1918      2.00000
     11       0.4591      2.00000
     12       0.4591      2.00000
     13       0.6703      2.00000
     14       2.3708      2.00000
     15       2.3708      2.00000
     16       2.6392      2.00000
     17       5.5960     -0.06469
     18       5.6968      0.00387
     19       5.6968      0.00387
     20       8.4315      0.00000

 k-point    27 :       0.3333    0.2222    0.2222
  band No.  band energies     occupation 
      1     -29.1188      2.00000
      2     -14.0632      2.00000
      3     -13.2716      2.00000
      4     -13.1445      2.00000
      5     -11.1837      2.00000
      6     -11.0133      2.00000
      7     -10.7521      2.00000
      8      -1.0887      2.00000
      9      -0.5039      2.00000
     10      -0.1760      2.00000
     11      -0.0266      2.00000
     12       0.1276      2.00000
     13       0.6340      2.00000
     14       2.3250      2.00000
     15       2.4079      2.00000
     16       2.7017      2.00000
     17       5.7085      0.00656
     18       6.0247      0.00007
     19       6.0541      0.00003
     20       8.4147      0.00000

 k-point    28 :       0.4444    0.2222    0.2222
  band No.  band energies     occupation 
      1     -29.1131      2.00000
      2     -14.0269      2.00000
      3     -13.2742      2.00000
      4     -13.0878      2.00000
      5     -11.2482      2.00000
      6     -10.9102      2.00000
      7     -10.8054      2.00000
      8      -1.3157      2.00000
      9      -0.6574      2.00000
     10      -0.3163      2.00000
     11      -0.1455      2.00000
     12      -0.0641      2.00000
     13       0.6989      2.00000
     14       2.2954      2.00000
     15       2.3953      2.00000
     16       2.6816      2.00000
     17       5.7450      0.00985
     18       6.2886      0.00000
     19       6.3252      0.00000
     20       8.3985      0.00000

 k-point    29 :       0.3333    0.3333    0.2222
  band No.  band energies     occupation 
      1     -29.1105      2.00000
      2     -13.8922      2.00000
      3     -13.2858      2.00000
      4     -13.1253      2.00000
      5     -11.2152      2.00000
      6     -11.0577      2.00000
      7     -10.7978      2.00000
      8      -1.1912      2.00000
      9      -0.6983      2.00000
     10      -0.5470      2.00000
     11      -0.2337      2.00000
     12       0.0740      2.00000
     13       0.2798      2.00000
     14       2.3890      2.00000
     15       2.5094      2.00000
     16       2.9388      2.00000
     17       6.0580      0.00003
     18       6.1191      0.00000
     19       6.2712      0.00000
     20       8.7805      0.00000

 k-point    30 :       0.4444    0.3333    0.2222
  band No.  band energies     occupation 
      1     -29.1051      2.00000
      2     -13.7774      2.00000
      3     -13.3006      2.00000
      4     -13.1039      2.00000
      5     -11.2697      2.00000
      6     -10.9940      2.00000
      7     -10.8867      2.00000
      8      -1.3688      2.00000
      9      -0.8701      2.00000
     10      -0.7653      2.00000
     11      -0.2182      2.00000
     12      -0.1030      2.00000
     13       0.2908      2.00000
     14       2.4298      2.00000
     15       2.5171      2.00000
     16       3.0528      2.00000
     17       6.1226      0.00000
     18       6.3537      0.00000
     19       6.4689      0.00000
     20       8.8303      0.00000

 k-point    31 :       0.4444    0.4444    0.2222
  band No.  band energies     occupation 
      1     -29.0998      2.00000
      2     -13.5308      2.00000
      3     -13.3235      2.00000
      4     -13.1989      2.00000
      5     -11.2425      2.00000
      6     -11.0358      2.00000
      7     -10.9807      2.00000
      8      -1.5038      2.00000
      9      -1.0497      2.00000
     10      -1.0154      2.00000
     11      -0.1737      2.00000
     12      -0.1058      2.00000
     13       0.1134      2.00000
     14       2.5191      2.00000
     15       2.5502      2.00000
     16       3.2637      2.00000
     17       6.3799      0.00000
     18       6.3898      0.00000
     19       6.6169      0.00000
     20       8.9287      0.00000

 k-point    32 :       0.3333    0.3333    0.3333
  band No.  band energies     occupation 
      1     -29.1025      2.00000
      2     -13.7005      2.00000
      3     -13.1588      2.00000
      4     -13.1588      2.00000
      5     -11.2337      2.00000
      6     -11.2337      2.00000
      7     -10.8977      2.00000
      8      -1.2349      2.00000
      9      -0.6849      2.00000
     10      -0.6849      2.00000
     11      -0.4660      2.00000
     12      -0.2026      2.00000
     13      -0.2026      2.00000
     14       2.7309      2.00000
     15       2.7309      2.00000
     16       3.0440      2.00000
     17       6.3084      0.00000
     18       6.3554      0.00000
     19       6.3554      0.00000
     20       9.6894      0.00000

 k-point    33 :       0.4444    0.3333    0.3333
  band No.  band energies     occupation 
      1     -29.0973      2.00000
      2     -13.5465      2.00000
      3     -13.2125      2.00000
      4     -13.0614      2.00000
      5     -11.3619      2.00000
      6     -11.1690      2.00000
      7     -11.0298      2.00000
      8      -1.4114      2.00000
      9      -0.8357      2.00000
     10      -0.6775      2.00000
     11      -0.6709      2.00000
     12      -0.3502      2.00000
     13      -0.1656      2.00000
     14       2.7943      2.00000
     15       2.9067      2.00000
     16       3.1404      2.00000
     17       6.3861      0.00000
     18       6.5261      0.00000
     19       6.5513      0.00000
     20       9.6658      0.00000

 k-point    34 :       0.4444    0.4444    0.3333
  band No.  band energies     occupation 
      1     -29.0922      2.00000
      2     -13.3254      2.00000
      3     -13.1674      2.00000
      4     -13.0844      2.00000
      5     -11.3809      2.00000
      6     -11.2641      2.00000
      7     -11.1836      2.00000
      8      -1.5524      2.00000
      9      -1.0429      2.00000
     10      -0.7263      2.00000
     11      -0.6961      2.00000
     12      -0.3458      2.00000
     13      -0.3400      2.00000
     14       2.9931      2.00000
     15       3.0166      2.00000
     16       3.2964      2.00000
     17       6.5824      0.00000
     18       6.5892      0.00000
     19       6.6930      0.00000
     20       9.8848      0.00000

 k-point    35 :       0.4444    0.4444    0.4444
  band No.  band energies     occupation 
      1     -29.0872      2.00000
      2     -13.1409      2.00000
      3     -13.0433      2.00000
      4     -13.0433      2.00000
      5     -11.4344      2.00000
      6     -11.4344      2.00000
      7     -11.3597      2.00000
      8      -1.6837      2.00000
      9      -1.0387      2.00000
     10      -1.0387      2.00000
     11      -0.5372      2.00000
     12      -0.4638      2.00000
     13      -0.4638      2.00000
     14       3.2749      2.00000
     15       3.2749      2.00000
     16       3.3314      2.00000
     17       6.7400      0.00000
     18       6.7470      0.00000
     19       6.7470      0.00000
     20      10.4922      0.00000


--------------------------------------------------------------------------------------------------------


 soft charge-density along one line, spin component           1
         0         1         2         3         4         5         6         7         8         9
 total charge-density along one line
 
 pseudopotential strength for first ion, spin component:           1
-11.684  -2.338   0.000  -0.000   0.000   0.000  -0.000   0.000
 -2.338  -2.093   0.000  -0.000  -0.000   0.000  -0.000  -0.000
  0.000   0.000 -14.736   0.000  -0.000 -14.460   0.000  -0.000
 -0.000  -0.000   0.000 -14.736   0.000   0.000 -14.460   0.000
  0.000  -0.000  -0.000   0.000 -14.736  -0.000   0.000 -14.460
  0.000   0.000 -14.460   0.000  -0.000 -14.188   0.000  -0.000
 -0.000  -0.000   0.000 -14.460   0.000   0.000 -14.188   0.000
  0.000  -0.000  -0.000   0.000 -14.460  -0.000   0.000 -14.188
 -0.000   0.000  -0.000   0.000   0.000  -0.000   0.000   0.000
  0.000   0.000  -0.000   0.000   0.000  -0.000   0.000   0.000
  0.000   0.000  -0.000  -0.000   0.000  -0.000  -0.000   0.000
  0.000  -0.000   0.000   0.000  -0.000   0.000   0.000  -0.000
 -0.000  -0.000   0.000  -0.000   0.000   0.000  -0.000   0.000
 -0.000   0.000  -0.000   0.000   0.000  -0.000   0.000   0.000
  0.000   0.000  -0.000   0.000   0.000  -0.000   0.000   0.000
  0.000   0.000  -0.000  -0.000   0.000  -0.000  -0.000   0.000
  0.000  -0.000   0.000   0.000  -0.000   0.000   0.000  -0.000
 -0.000  -0.000   0.000  -0.000   0.000   0.000  -0.000   0.000
 total augmentation occupancy for first ion, spin component:           1
  1.998  -0.016   0.000   0.000   0.000   0.000   0.000   0.000   0.000   0.000   0.000   0.000   0.000   0.000  -0.000  -0.000
 -0.016   0.392   0.000   0.000   0.000   0.000   0.000   0.000  -0.000   0.000  -0.000   0.000  -0.000  -0.000  -0.000   0.000
  0.000   0.000   8.865   0.000  -0.000  -7.274  -0.000  -0.000   0.000   0.000   0.000   0.000   0.000   0.000   0.000   0.000
  0.000   0.000  -0.000   8.865  -0.000   0.000  -7.274   0.000   0.000   0.000   0.000   0.000   0.000   0.000   0.000   0.000
  0.000   0.000   0.000   0.000   8.865   0.000  -0.000  -7.274   0.000   0.000   0.000   0.000   0.000   0.000   0.000   0.000
  0.000   0.000  -7.274  -0.000  -0.000   7.720  -0.000   0.000   0.000   0.000   0.000   0.000   0.000   0.000   0.000   0.000
  0.000   0.000  -0.000  -7.274  -0.000   0.000   7.720   0.000   0.000   0.000   0.000   0.000   0.000   0.000   0.000   0.000
  0.000   0.000  -0.000   0.000  -7.274   0.000  -0.000   7.720   0.000   0.000   0.000   0.000   0.000   0.000   0.000   0.000
 -0.000  -0.000   0.000   0.000   0.000   0.000   0.000   0.000   5.586  -0.000   0.000  -0.000  -0.000  -3.109  -0.000  -0.000
  0.000   0.000   0.000   0.000   0.000   0.000   0.000   0.000  -0.000   5.586   0.000   0.000   0.000   0.000  -3.109  -0.000
  0.000  -0.000   0.000   0.000   0.000   0.000   0.000   0.000   0.000   0.000   3.484   0.000   0.000   0.000  -0.000  -1.930
  0.000   0.000   0.000   0.000   0.000   0.000   0.000   0.000   0.000  -0.000   0.000   5.586   0.000   0.000   0.000   0.000
  0.000  -0.000   0.000   0.000   0.000   0.000   0.000   0.000  -0.000  -0.000   0.000   0.000   3.484  -0.000  -0.000  -0.000
  0.000   0.000   0.000   0.000   0.000   0.000   0.000   0.000  -3.109   0.000   0.000   0.000  -0.000   1.733   0.000   0.000
  0.000  -0.000   0.000   0.000   0.000   0.000   0.000   0.000  -0.000  -3.109  -0.000   0.000   0.000   0.000   1.733   0.000
 -0.000   0.000   0.000   0.000   0.000   0.000   0.000   0.000  -0.000   0.000  -1.930   0.000  -0.000   0.000  -0.000   1.070
  0.000  -0.000   0.000   0.000   0.000   0.000   0.000   0.000  -0.000   0.000  -0.000  -3.109  -0.000   0.000  -0.000  -0.000
 -0.000   0.000   0.000   0.000   0.000   0.000   0.000   0.000  -0.000   0.000  -0.000   0.000  -1.930  -0.000  -0.000   0.000


------------------------ aborting loop because EDIFF is reached ----------------------------------------



 optimized coefficients for linear combined projectors, energy window       6.00      9.00
 species Sr NT=   1 L=   0     0.280    -0.307
 species Sr NT=   1 L=   1    -0.581    -0.539
 species Sr NT=   1 L=   2     0.605     0.922
 
 species V  NT=   2 L=   2     0.885     0.879
 species V  NT=   2 L=   0     0.554    -0.809
 species V  NT=   2 L=   1     0.799    -0.893
 
 species O  NT=   3 L=   0     0.871    -0.997
 species O  NT=   3 L=   1     0.852    -0.962
 
 


 total charge     
 
# of ion       s       p       d       tot
------------------------------------------
    1        1.999   5.794   0.216   8.009
    2        0.545   1.083   3.612   5.240
    3        1.589   3.485   0.000   5.074
    4        1.589   3.485   0.000   5.074
    5        1.589   3.485   0.000   5.074
--------------------------------------------------
tot          7.312  17.332   3.827  28.471
 
    CHARGE:  cpu time    0.0360: real time    0.0387
    FORLOC:  cpu time    0.0040: real time    0.0014
    FORNL :  cpu time    0.0800: real time    0.0833
    STRESS:  cpu time    0.3880: real time    0.3864
    FORCOR:  cpu time    0.0080: real time    0.0112
    FORHAR:  cpu time    0.0040: real time    0.0029
    MIXING:  cpu time    0.0000: real time    0.0009
    OFIELD:  cpu time    0.0000: real time    0.0000

  FORCE on cell =-STRESS in cart. coord.  units (eV):
  Direction    XX          YY          ZZ          XY          YZ          ZX
  --------------------------------------------------------------------------------------
  Alpha Z   184.93671   184.93671   184.93671
  Ewald    -682.63392  -682.63392  -682.63392    -0.00000    -0.00000    -0.00000
  Hartree   142.67937   142.67937   142.67937    -0.00000    -0.00000    -0.00000
  E(xc)    -151.28467  -151.28467  -151.28467     0.00000     0.00000     0.00000
  Local      11.46272    11.46272    11.46272     0.00000     0.00000     0.00000
  n-local  -121.00931  -118.62998  -115.69544    -0.73990    -0.59204    -0.42820
  augment    42.49169    42.49169    42.49169    -0.00000    -0.00000     0.00000
  Kinetic   557.42450   573.63333   578.50772    -2.17074    -2.53913    -1.63989
  Fock        0.00000     0.00000     0.00000     0.00000     0.00000     0.00000
  -------------------------------------------------------------------------------------
  Total      -0.93783    -0.93783    -0.93783     0.00000     0.00000    -0.00000
  in kB     -26.40163   -26.40163   -26.40163     0.00000     0.00000    -0.00000
  external pressure =      -26.40 kB  Pullay stress =        0.00 kB


 VOLUME and BASIS-vectors are now :
 -----------------------------------------------------------------------------
  energy-cutoff  :      400.00
  volume of cell :       56.91
      direct lattice vectors                 reciprocal lattice vectors
     3.846520000  0.000000000  0.000000000     0.259975250  0.000000000  0.000000000
     0.000000000  3.846520000  0.000000000     0.000000000  0.259975250  0.000000000
     0.000000000  0.000000000  3.846520000     0.000000000  0.000000000  0.259975250

  length of vectors
     3.846520000  3.846520000  3.846520000     0.259975250  0.259975250  0.259975250


 FORCES acting on ions
    electron-ion (+dipol)            ewald-force                    non-local-force                 convergence-correction
 -----------------------------------------------------------------------------------------------
   0.473E-14 0.667E-14 0.216E-14   0.120E-14 -.410E-14 -.321E-14   0.189E-23 0.177E-23 0.114E-23   0.102E-13 -.805E-14 -.318E-13
   -.170E-13 -.672E-12 0.220E-12   0.918E-14 -.366E-14 -.247E-14   0.399E-25 0.125E-26 0.404E-25   0.225E-14 0.751E-14 0.191E-13
   0.803E-13 0.240E-12 -.155E-12   -.390E-14 0.535E-14 0.219E-14   -.487E-23 -.320E-23 0.187E-23   -.818E-14 0.113E-13 -.248E-13
   0.103E-13 0.814E-13 0.731E-13   -.886E-14 0.170E-14 0.239E-14   0.138E-23 0.639E-23 -.354E-23   0.575E-14 0.157E-13 0.283E-13
   0.799E-13 0.118E-13 0.783E-12   0.207E-14 0.155E-14 0.244E-14   0.338E-23 0.101E-23 0.649E-23   0.756E-15 -.758E-14 0.268E-13
 -----------------------------------------------------------------------------------------------
   0.158E-12 -.333E-12 0.922E-12   -.318E-15 0.827E-15 0.135E-14   0.183E-23 0.597E-23 0.600E-23   0.108E-13 0.189E-13 0.176E-13
 
 
 POSITION                                       TOTAL-FORCE (eV/Angst)
 -----------------------------------------------------------------------------------
      0.00000      0.00000      0.00000        -0.000000     -0.000000     -0.000000
      1.92326      1.92326      1.92326         0.000000     -0.000000     -0.000000
      1.92326      1.92326      0.00000         0.000000      0.000000     -0.000000
      0.00000      1.92326      1.92326        -0.000000      0.000000      0.000000
      1.92326      0.00000      1.92326        -0.000000     -0.000000      0.000000
 -----------------------------------------------------------------------------------
    total drift:                                0.000000     -0.000000      0.000000


--------------------------------------------------------------------------------------------------------



  FREE ENERGIE OF THE ION-ELECTRON SYSTEM (eV)
  ---------------------------------------------------
  free  energy   TOTEN  =       -39.07422148 eV

  energy  without entropy=      -39.06158218  energy(sigma->0) =      -39.07106165
 


--------------------------------------------------------------------------------------------------------


    POTLOK:  cpu time    0.2920: real time    0.2892


--------------------------------------------------------------------------------------------------------


 writing wavefunctions
     LOOP+:  cpu time   16.2920: real time   16.5146
    4ORBIT:  cpu time    0.0000: real time    0.0000

 optimized coefficients for linear combined projectors, energy window       6.00      9.00
 species Sr NT=   1 L=   0     0.280    -0.307
 species Sr NT=   1 L=   1    -0.581    -0.539
 species Sr NT=   1 L=   2     0.605     0.922
 
 species V  NT=   2 L=   2     0.885     0.879
 species V  NT=   2 L=   0     0.554    -0.809
 species V  NT=   2 L=   1     0.799    -0.893
 
 species O  NT=   3 L=   0     0.871    -0.997
 species O  NT=   3 L=   1     0.852    -0.962
 
 


 total charge     
 
# of ion       s       p       d       tot
------------------------------------------
    1        1.999   5.794   0.216   8.009
    2        0.545   1.083   3.612   5.240
    3        1.589   3.485   0.000   5.074
    4        1.589   3.485   0.000   5.074
    5        1.589   3.485   0.000   5.074
--------------------------------------------------
tot          7.312  17.332   3.827  28.471
 

 total amount of memory used by VASP MPI-rank0    51091. kBytes
=======================================================================

   base      :      30000. kBytes
   nonl-proj :      15929. kBytes
   fftplans  :        595. kBytes
   grid      :       1388. kBytes
   one-center:         77. kBytes
   wavefun   :       3102. kBytes
 
  
  
 General timing and accounting informations for this job:
 ========================================================
  
                  Total CPU time used (sec):       22.860
                            User time (sec):       22.016
                          System time (sec):        0.844
                         Elapsed time (sec):       23.219
  
                   Maximum memory used (kb):      112328.
                   Average memory used (kb):           0.
  
                          Minor page faults:       362384
                          Major page faults:           35
                 Voluntary context switches:          671
