PROCAR lm decomposed + phase; opt. projector for intervall (eV)     6.0000000     9.0000000
# of k-points:   35         # of bands:   20         # of ions:    5

 k-point     1 :    0.00000000 0.00000000 0.00000000     weight = 0.00137174

band     1 # energy  -29.16180680 # occ.  2.00000000
 
ion      s     py     pz     px    dxy    dyz    dz2    dxz  x2-y2    tot
    1  0.972  0.000  0.000  0.000  0.000  0.000  0.000  0.000  0.000  0.972
    2  0.000  0.000  0.000  0.000  0.000  0.000  0.000  0.000  0.000  0.000
    3  0.000  0.000  0.000  0.000  0.000  0.000  0.000  0.000  0.000  0.000
    4  0.000  0.000  0.000  0.000  0.000  0.000  0.000  0.000  0.000  0.000
    5  0.000  0.000  0.000  0.000  0.000  0.000  0.000  0.000  0.000  0.000
tot    0.974  0.000  0.000  0.000  0.000  0.000  0.000  0.000  0.000  0.974
ion          s             py             pz             px             dxy            dyz            dz2            dxz          dx2-y2  
    1 -0.047 -0.271  -0.000 -0.000  -0.000  0.000   0.000 -0.000   0.000  0.000   0.000  0.000  -0.000 -0.000   0.000  0.000   0.000 -0.000   0.076
    2 -0.003 -0.020   0.000  0.000  -0.000  0.000  -0.000  0.000  -0.000 -0.000  -0.000 -0.000  -0.000 -0.000  -0.000 -0.000  -0.000 -0.000   0.000
    3 -0.003 -0.019  -0.000 -0.000  -0.000  0.000   0.000 -0.000   0.000  0.000   0.000  0.000   0.000  0.000   0.000  0.000   0.000  0.000   0.000
    4 -0.003 -0.019  -0.000 -0.000  -0.000 -0.000  -0.000  0.000   0.000  0.000   0.000  0.000   0.000  0.000   0.000  0.000   0.000  0.000   0.000
    5 -0.003 -0.019   0.000  0.000  -0.000 -0.000   0.000 -0.000   0.000  0.000   0.000  0.000   0.000  0.000   0.000  0.000   0.000  0.000   0.000
charge 0.077          0.000          0.000          0.000          0.000          0.000          0.000          0.000          0.000          0.077       
 
band     2 # energy  -14.34633690 # occ.  2.00000000
 
ion      s     py     pz     px    dxy    dyz    dz2    dxz  x2-y2    tot
    1  0.011  0.000  0.000  0.000  0.000  0.000  0.000  0.000  0.000  0.011
    2  0.136  0.000  0.000  0.000  0.000  0.000  0.000  0.000  0.000  0.136
    3  0.240  0.000  0.000  0.000  0.000  0.000  0.000  0.000  0.000  0.240
    4  0.240  0.000  0.000  0.000  0.000  0.000  0.000  0.000  0.000  0.240
    5  0.240  0.000  0.000  0.000  0.000  0.000  0.000  0.000  0.000  0.240
tot    0.867  0.000  0.000  0.000  0.000  0.000  0.000  0.000  0.000  0.867
ion          s             py             pz             px             dxy            dyz            dz2            dxz          dx2-y2  
    1 -0.051 -0.063  -0.000  0.000  -0.000  0.000   0.000 -0.000   0.000 -0.000   0.000  0.000  -0.000 -0.000   0.000 -0.000   0.000  0.000   0.007
    2  0.228  0.280   0.000 -0.000  -0.000  0.000  -0.000  0.000  -0.000  0.000  -0.000 -0.000   0.000  0.000  -0.000  0.000  -0.000 -0.000   0.130
    3  0.294  0.360   0.000 -0.000  -0.000  0.000  -0.000  0.000   0.000  0.000   0.000  0.000   0.000  0.000   0.000  0.000   0.000  0.000   0.216
    4  0.295  0.361   0.000 -0.000   0.000 -0.000  -0.000  0.000   0.000  0.000   0.000  0.000   0.000  0.000   0.000  0.000   0.000  0.000   0.217
    5  0.295  0.361   0.000  0.000   0.000 -0.000  -0.000  0.000   0.000  0.000   0.000  0.000   0.000  0.000   0.000  0.000   0.000  0.000   0.218
charge 0.788          0.000          0.000          0.000          0.000          0.000          0.000          0.000          0.000          0.788       
 
band     3 # energy  -13.15948964 # occ.  2.00000000
 
ion      s     py     pz     px    dxy    dyz    dz2    dxz  x2-y2    tot
    1  0.000  0.000  0.000  0.000  0.000  0.000  0.000  0.000  0.002  0.002
    2  0.000  0.000  0.000  0.000  0.000  0.000  0.010  0.000  0.127  0.137
    3  0.039  0.000  0.000  0.000  0.000  0.000  0.000  0.000  0.000  0.039
    4  0.259  0.000  0.000  0.000  0.000  0.000  0.000  0.000  0.000  0.259
    5  0.498  0.000  0.000  0.000  0.000  0.000  0.000  0.000  0.000  0.498
tot    0.796  0.000  0.000  0.000  0.000  0.000  0.010  0.000  0.129  0.935
ion          s             py             pz             px             dxy            dyz            dz2            dxz          dx2-y2  
    1 -0.000 -0.000  -0.000  0.000  -0.000  0.000   0.000 -0.000   0.000  0.000   0.000  0.000   0.008  0.009   0.000 -0.000   0.030  0.032   0.002
    2 -0.000 -0.000   0.000 -0.000   0.000 -0.000  -0.000  0.000  -0.000 -0.000  -0.000  0.000  -0.038 -0.041  -0.000  0.000  -0.137 -0.147   0.044
    3 -0.128 -0.137  -0.000  0.000   0.000 -0.000   0.000 -0.000   0.000  0.000   0.000  0.000   0.000  0.000   0.000  0.000   0.000  0.000   0.035
    4 -0.331 -0.356  -0.000  0.000  -0.000  0.000  -0.000  0.000   0.000  0.000   0.000  0.000   0.000  0.000   0.000  0.000   0.000  0.000   0.236
    5  0.459  0.494   0.000 -0.000  -0.000  0.000   0.000 -0.000   0.000  0.000   0.000  0.000   0.000  0.000   0.000  0.000   0.000  0.000   0.455
charge 0.727          0.000          0.000          0.000          0.000          0.000          0.003          0.000          0.042          0.772       
 
band     4 # energy  -13.15948939 # occ.  2.00000000
 
ion      s     py     pz     px    dxy    dyz    dz2    dxz  x2-y2    tot
    1  0.000  0.000  0.000  0.000  0.000  0.000  0.002  0.000  0.000  0.002
    2  0.000  0.000  0.000  0.000  0.000  0.000  0.127  0.000  0.010  0.137
    3  0.492  0.000  0.000  0.000  0.000  0.000  0.000  0.000  0.000  0.492
    4  0.271  0.000  0.000  0.000  0.000  0.000  0.000  0.000  0.000  0.271
    5  0.033  0.000  0.000  0.000  0.000  0.000  0.000  0.000  0.000  0.033
tot    0.796  0.000  0.000  0.000  0.000  0.000  0.129  0.000  0.010  0.935
ion          s             py             pz             px             dxy            dyz            dz2            dxz          dx2-y2  
    1 -0.000 -0.000  -0.000  0.000  -0.000  0.000   0.000 -0.000   0.000  0.000   0.000  0.000   0.040 -0.018   0.000 -0.000  -0.011  0.005   0.002
    2  0.000 -0.000   0.000 -0.000   0.000  0.000  -0.000  0.000  -0.000 -0.000  -0.000  0.000  -0.183  0.083  -0.000  0.000   0.051 -0.023   0.044
    3 -0.610  0.274  -0.000  0.000   0.000 -0.000   0.000 -0.000   0.000  0.000   0.000  0.000   0.000  0.000   0.000  0.000   0.000  0.000   0.447
    4  0.454 -0.204  -0.000  0.000  -0.000 -0.000  -0.000  0.000   0.000  0.000   0.000  0.000   0.000  0.000   0.000  0.000   0.000  0.000   0.248
    5  0.157 -0.071   0.000 -0.000  -0.000 -0.000   0.000 -0.000   0.000  0.000   0.000  0.000   0.000  0.000   0.000  0.000   0.000  0.000   0.030
charge 0.724          0.000          0.000          0.000          0.000          0.000          0.042          0.000          0.003          0.770       
 
band     5 # energy  -11.16400705 # occ.  2.00000000
 
ion      s     py     pz     px    dxy    dyz    dz2    dxz  x2-y2    tot
    1  0.000  0.000  0.936  0.000  0.000  0.000  0.000  0.000  0.000  0.936
    2  0.000  0.000  0.002  0.000  0.000  0.000  0.000  0.000  0.000  0.002
    3  0.000  0.000  0.000  0.000  0.000  0.000  0.000  0.000  0.000  0.000
    4  0.000  0.000  0.003  0.000  0.000  0.000  0.000  0.000  0.000  0.003
    5  0.000  0.000  0.003  0.000  0.000  0.000  0.000  0.000  0.000  0.003
tot    0.000  0.000  0.945  0.000  0.000  0.000  0.000  0.000  0.000  0.945
ion          s             py             pz             px             dxy            dyz            dz2            dxz          dx2-y2  
    1 -0.000  0.000   0.000 -0.000  -0.068  0.555   0.000  0.000  -0.000 -0.000  -0.000  0.000  -0.000 -0.000   0.000 -0.000   0.000 -0.000   0.313
    2  0.000  0.000   0.000 -0.000  -0.006  0.046   0.000  0.000   0.000  0.000   0.000 -0.000  -0.000 -0.000  -0.000  0.000   0.000 -0.000   0.002
    3 -0.000 -0.000   0.000 -0.000   0.002 -0.020   0.000  0.000   0.000  0.000   0.000  0.000   0.000  0.000   0.000  0.000   0.000  0.000   0.000
    4 -0.000 -0.000   0.000 -0.000  -0.006  0.052  -0.000 -0.000   0.000  0.000   0.000  0.000   0.000  0.000   0.000  0.000   0.000  0.000   0.003
    5 -0.000 -0.000  -0.000  0.000  -0.006  0.052   0.000  0.000   0.000  0.000   0.000  0.000   0.000  0.000   0.000  0.000   0.000  0.000   0.003
charge 0.000          0.000          0.321          0.000          0.000          0.000          0.000          0.000          0.000          0.321       
 
band     6 # energy  -11.16400705 # occ.  2.00000000
 
ion      s     py     pz     px    dxy    dyz    dz2    dxz  x2-y2    tot
    1  0.000  0.936  0.000  0.000  0.000  0.000  0.000  0.000  0.000  0.936
    2  0.000  0.002  0.000  0.000  0.000  0.000  0.000  0.000  0.000  0.002
    3  0.000  0.003  0.000  0.000  0.000  0.000  0.000  0.000  0.000  0.003
    4  0.000  0.003  0.000  0.000  0.000  0.000  0.000  0.000  0.000  0.003
    5  0.000  0.000  0.000  0.000  0.000  0.000  0.000  0.000  0.000  0.000
tot    0.000  0.945  0.000  0.000  0.000  0.000  0.000  0.000  0.000  0.945
ion          s             py             pz             px             dxy            dyz            dz2            dxz          dx2-y2  
    1  0.000 -0.000   0.541  0.141   0.000 -0.000  -0.000 -0.000  -0.000  0.000   0.000  0.000  -0.000 -0.000   0.000  0.000   0.000 -0.000   0.313
    2  0.000  0.000   0.044  0.012   0.000 -0.000  -0.000 -0.000   0.000  0.000  -0.000 -0.000   0.000  0.000   0.000 -0.000  -0.000  0.000   0.002
    3 -0.000 -0.000   0.051  0.013  -0.000  0.000  -0.000 -0.000   0.000  0.000   0.000  0.000   0.000  0.000   0.000  0.000   0.000  0.000   0.003
    4 -0.000  0.000   0.051  0.013   0.000 -0.000   0.000  0.000   0.000  0.000   0.000  0.000   0.000  0.000   0.000  0.000   0.000  0.000   0.003
    5 -0.000  0.000  -0.020 -0.005   0.000 -0.000  -0.000 -0.000   0.000  0.000   0.000  0.000   0.000  0.000   0.000  0.000   0.000  0.000   0.000
charge 0.000          0.321          0.000          0.000          0.000          0.000          0.000          0.000          0.000          0.321       
 
band     7 # energy  -11.16400705 # occ.  2.00000000
 
ion      s     py     pz     px    dxy    dyz    dz2    dxz  x2-y2    tot
    1  0.000  0.000  0.000  0.936  0.000  0.000  0.000  0.000  0.000  0.936
    2  0.000  0.000  0.000  0.002  0.000  0.000  0.000  0.000  0.000  0.002
    3  0.000  0.000  0.000  0.003  0.000  0.000  0.000  0.000  0.000  0.003
    4  0.000  0.000  0.000  0.000  0.000  0.000  0.000  0.000  0.000  0.000
    5  0.000  0.000  0.000  0.003  0.000  0.000  0.000  0.000  0.000  0.003
tot    0.000  0.000  0.000  0.945  0.000  0.000  0.000  0.000  0.000  0.945
ion          s             py             pz             px             dxy            dyz            dz2            dxz          dx2-y2  
    1 -0.000 -0.000  -0.000  0.000   0.000  0.000  -0.551  0.095   0.000  0.000  -0.000  0.000   0.000 -0.000   0.000 -0.000   0.000 -0.000   0.313
    2 -0.000  0.000  -0.000  0.000   0.000  0.000  -0.045  0.008  -0.000 -0.000   0.000 -0.000  -0.000 -0.000  -0.000  0.000   0.000 -0.000   0.002
    3 -0.000 -0.000  -0.000  0.000  -0.000 -0.000  -0.051  0.009   0.000  0.000   0.000  0.000   0.000  0.000   0.000  0.000   0.000  0.000   0.003
    4 -0.000 -0.000  -0.000  0.000   0.000  0.000   0.020 -0.003   0.000  0.000   0.000  0.000   0.000  0.000   0.000  0.000   0.000  0.000   0.000
    5  0.000 -0.000   0.000 -0.000   0.000  0.000  -0.052  0.009   0.000  0.000   0.000  0.000   0.000  0.000   0.000  0.000   0.000  0.000   0.003
charge 0.000          0.000          0.000          0.321          0.000          0.000          0.000          0.000          0.000          0.321       
 
band     8 # energy    0.21966797 # occ.  2.00000000
 
ion      s     py     pz     px    dxy    dyz    dz2    dxz  x2-y2    tot
    1  0.000  0.000  0.030  0.000  0.000  0.000  0.000  0.000  0.000  0.030
    2  0.000  0.000  0.233  0.000  0.000  0.000  0.000  0.000  0.000  0.233
    3  0.000  0.000  0.331  0.000  0.000  0.000  0.000  0.000  0.000  0.331
    4  0.000  0.000  0.129  0.000  0.000  0.000  0.000  0.000  0.000  0.129
    5  0.000  0.000  0.129  0.000  0.000  0.000  0.000  0.000  0.000  0.129
tot    0.000  0.000  0.851  0.000  0.000  0.000  0.000  0.000  0.000  0.851
ion          s             py             pz             px             dxy            dyz            dz2            dxz          dx2-y2  
    1 -0.000 -0.000  -0.000 -0.000   0.155 -0.045   0.000 -0.000   0.000 -0.000   0.000 -0.000  -0.000  0.000   0.000  0.000   0.000  0.000   0.026
    2 -0.000 -0.000   0.000  0.000  -0.463  0.134  -0.000  0.000   0.000  0.000  -0.000  0.000   0.000 -0.000  -0.000 -0.000  -0.000 -0.000   0.232
    3 -0.000 -0.000   0.000  0.000   0.550 -0.159  -0.000  0.000   0.000  0.000   0.000  0.000   0.000  0.000   0.000  0.000   0.000  0.000   0.327
    4 -0.000 -0.000   0.000  0.000  -0.343  0.100   0.000 -0.000   0.000  0.000   0.000  0.000   0.000  0.000   0.000  0.000   0.000  0.000   0.128
    5 -0.000 -0.000  -0.000 -0.000  -0.343  0.099  -0.000  0.000   0.000  0.000   0.000  0.000   0.000  0.000   0.000  0.000   0.000  0.000   0.128
charge 0.000          0.000          0.841          0.000          0.000          0.000          0.000          0.000          0.000          0.841       
 
band     9 # energy    0.21966807 # occ.  2.00000000
 
ion      s     py     pz     px    dxy    dyz    dz2    dxz  x2-y2    tot
    1  0.000  0.030  0.000  0.000  0.000  0.000  0.000  0.000  0.000  0.030
    2  0.000  0.233  0.000  0.000  0.000  0.000  0.000  0.000  0.000  0.233
    3  0.000  0.129  0.000  0.000  0.000  0.000  0.000  0.000  0.000  0.129
    4  0.000  0.129  0.000  0.000  0.000  0.000  0.000  0.000  0.000  0.129
    5  0.000  0.331  0.000  0.000  0.000  0.000  0.000  0.000  0.000  0.331
tot    0.000  0.851  0.000  0.000  0.000  0.000  0.000  0.000  0.000  0.851
ion          s             py             pz             px             dxy            dyz            dz2            dxz          dx2-y2  
    1  0.000 -0.000   0.158  0.035   0.000 -0.000   0.000 -0.000   0.000  0.000  -0.000 -0.000  -0.000 -0.000  -0.000 -0.000  -0.000 -0.000   0.026
    2  0.000  0.000  -0.471 -0.104  -0.000  0.000  -0.000  0.000   0.000  0.000  -0.000 -0.000   0.000  0.000  -0.000  0.000   0.000 -0.000   0.232
    3 -0.000 -0.000  -0.348 -0.077   0.000 -0.000  -0.000  0.000   0.000  0.000   0.000  0.000   0.000  0.000   0.000  0.000   0.000  0.000   0.127
    4 -0.000 -0.000  -0.349 -0.077  -0.000  0.000   0.000 -0.000   0.000  0.000   0.000  0.000   0.000  0.000   0.000  0.000   0.000  0.000   0.128
    5  0.000 -0.000   0.559  0.124  -0.000  0.000  -0.000  0.000   0.000  0.000   0.000  0.000   0.000  0.000   0.000  0.000   0.000  0.000   0.328
charge 0.000          0.842          0.000          0.000          0.000          0.000          0.000          0.000          0.000          0.842       
 
band    10 # energy    0.21966823 # occ.  2.00000000
 
ion      s     py     pz     px    dxy    dyz    dz2    dxz  x2-y2    tot
    1  0.000  0.000  0.000  0.030  0.000  0.000  0.000  0.000  0.000  0.030
    2  0.000  0.000  0.000  0.233  0.000  0.000  0.000  0.000  0.000  0.233
    3  0.000  0.000  0.000  0.129  0.000  0.000  0.000  0.000  0.000  0.129
    4  0.000  0.000  0.000  0.331  0.000  0.000  0.000  0.000  0.000  0.331
    5  0.000  0.000  0.000  0.129  0.000  0.000  0.000  0.000  0.000  0.129
tot    0.000  0.000  0.000  0.851  0.000  0.000  0.000  0.000  0.000  0.851
ion          s             py             pz             px             dxy            dyz            dz2            dxz          dx2-y2  
    1 -0.000  0.000  -0.000 -0.000  -0.000  0.000   0.144 -0.073   0.000  0.000   0.000  0.000   0.000  0.000  -0.000 -0.000  -0.000 -0.000   0.026
    2  0.000 -0.000   0.000  0.000   0.000 -0.000  -0.430  0.219  -0.000 -0.000   0.000 -0.000   0.000  0.000   0.000  0.000  -0.000 -0.000   0.232
    3 -0.000  0.000   0.000  0.000  -0.000  0.000  -0.318  0.162   0.000  0.000   0.000  0.000   0.000  0.000   0.000  0.000   0.000  0.000   0.127
    4 -0.000  0.000   0.000  0.000   0.000 -0.000   0.511 -0.260   0.000  0.000   0.000  0.000   0.000  0.000   0.000  0.000   0.000  0.000   0.329
    5 -0.000  0.000  -0.000 -0.000   0.000 -0.000  -0.318  0.162   0.000  0.000   0.000  0.000   0.000  0.000   0.000  0.000   0.000  0.000   0.128
charge 0.000          0.000          0.000          0.842          0.000          0.000          0.000          0.000          0.000          0.842       
 
band    11 # energy    2.17386303 # occ.  2.00000000
 
ion      s     py     pz     px    dxy    dyz    dz2    dxz  x2-y2    tot
    1  0.000  0.000  0.000  0.000  0.000  0.000  0.000  0.000  0.000  0.000
    2  0.000  0.000  0.000  0.000  0.000  0.000  0.000  0.000  0.000  0.000
    3  0.000  0.126  0.000  0.227  0.000  0.000  0.000  0.000  0.000  0.353
    4  0.000  0.126  0.000  0.000  0.000  0.000  0.000  0.000  0.000  0.126
    5  0.000  0.000  0.000  0.227  0.000  0.000  0.000  0.000  0.000  0.227
tot    0.000  0.252  0.001  0.454  0.000  0.000  0.000  0.000  0.000  0.707
ion          s             py             pz             px             dxy            dyz            dz2            dxz          dx2-y2  
    1 -0.000 -0.000  -0.000  0.000  -0.000  0.000  -0.000 -0.000  -0.000 -0.000   0.000 -0.000  -0.000  0.000   0.000 -0.000   0.000 -0.000   0.000
    2  0.000  0.000   0.000 -0.000   0.000 -0.000   0.000  0.000   0.000  0.000  -0.000  0.000  -0.000  0.000   0.000  0.000   0.000  0.000   0.000
    3 -0.000 -0.000  -0.039 -0.351  -0.000 -0.000   0.015  0.475   0.000  0.000   0.000  0.000   0.000  0.000   0.000  0.000   0.000  0.000   0.351
    4  0.000 -0.000   0.039  0.352   0.012  0.012   0.000  0.000   0.000  0.000   0.000  0.000   0.000  0.000   0.000  0.000   0.000  0.000   0.126
    5  0.000 -0.000   0.000 -0.000  -0.012 -0.012  -0.015 -0.475   0.000  0.000   0.000  0.000   0.000  0.000   0.000  0.000   0.000  0.000   0.226
charge 0.000          0.250          0.001          0.452          0.000          0.000          0.000          0.000          0.000          0.702       
 
band    12 # energy    2.17386303 # occ.  2.00000000
 
ion      s     py     pz     px    dxy    dyz    dz2    dxz  x2-y2    tot
    1  0.000  0.000  0.000  0.000  0.000  0.000  0.000  0.000  0.000  0.000
    2  0.000  0.000  0.000  0.000  0.000  0.000  0.000  0.000  0.000  0.000
    3  0.000  0.227  0.000  0.126  0.000  0.000  0.000  0.000  0.000  0.353
    4  0.000  0.227  0.000  0.000  0.000  0.000  0.000  0.000  0.000  0.228
    5  0.000  0.000  0.000  0.126  0.000  0.000  0.000  0.000  0.000  0.126
tot    0.000  0.455  0.001  0.251  0.000  0.000  0.000  0.000  0.000  0.707
ion          s             py             pz             px             dxy            dyz            dz2            dxz          dx2-y2  
    1  0.000  0.000   0.000 -0.000   0.000 -0.000  -0.000 -0.000   0.000  0.000  -0.000  0.000   0.000 -0.000  -0.000  0.000  -0.000  0.000   0.000
    2  0.000 -0.000  -0.000  0.000  -0.000  0.000   0.000  0.000  -0.000 -0.000  -0.000 -0.000   0.000 -0.000  -0.000 -0.000  -0.000 -0.000   0.000
    3  0.000  0.000  -0.194 -0.434  -0.000  0.000  -0.118 -0.333   0.000  0.000   0.000  0.000   0.000  0.000   0.000  0.000   0.000  0.000   0.351
    4 -0.000  0.000   0.194  0.435  -0.011 -0.012   0.000  0.000   0.000  0.000   0.000  0.000   0.000  0.000   0.000  0.000   0.000  0.000   0.227
    5 -0.000  0.000  -0.000  0.000   0.011  0.012   0.118  0.333   0.000  0.000   0.000  0.000   0.000  0.000   0.000  0.000   0.000  0.000   0.125
charge 0.000          0.452          0.001          0.250          0.000          0.000          0.000          0.000          0.000          0.703       
 
band    13 # energy    2.17386303 # occ.  2.00000000
 
ion      s     py     pz     px    dxy    dyz    dz2    dxz  x2-y2    tot
    1  0.000  0.000  0.000  0.000  0.000  0.000  0.000  0.000  0.000  0.000
    2  0.000  0.000  0.000  0.000  0.000  0.000  0.000  0.000  0.000  0.000
    3  0.000  0.000  0.000  0.001  0.000  0.000  0.000  0.000  0.000  0.001
    4  0.000  0.000  0.353  0.000  0.000  0.000  0.000  0.000  0.000  0.353
    5  0.000  0.000  0.353  0.001  0.000  0.000  0.000  0.000  0.000  0.353
tot    0.000  0.000  0.706  0.001  0.000  0.000  0.000  0.000  0.000  0.707
ion          s             py             pz             px             dxy            dyz            dz2            dxz          dx2-y2  
    1 -0.000 -0.000  -0.000  0.000  -0.000  0.000  -0.000 -0.000  -0.000 -0.000   0.000 -0.000  -0.000  0.000   0.000 -0.000   0.000 -0.000   0.000
    2  0.000  0.000   0.000 -0.000   0.000 -0.000   0.000  0.000   0.000  0.000  -0.000  0.000  -0.000  0.000   0.000  0.000   0.000  0.000   0.000
    3 -0.000 -0.000  -0.004 -0.002  -0.000 -0.000  -0.002 -0.023   0.000  0.000   0.000  0.000   0.000  0.000   0.000  0.000   0.000  0.000   0.001
    4  0.000 -0.000   0.004  0.002   0.378  0.457   0.000  0.000   0.000  0.000   0.000  0.000   0.000  0.000   0.000  0.000   0.000  0.000   0.351
    5 -0.000 -0.000   0.000 -0.000  -0.377 -0.457   0.002  0.023   0.000  0.000   0.000  0.000   0.000  0.000   0.000  0.000   0.000  0.000   0.351
charge 0.000          0.000          0.702          0.001          0.000          0.000          0.000          0.000          0.000          0.703       
 
band    14 # energy    3.01348846 # occ.  2.00000000
 
ion      s     py     pz     px    dxy    dyz    dz2    dxz  x2-y2    tot
    1  0.000  0.000  0.012  0.000  0.000  0.000  0.000  0.000  0.000  0.012
    2  0.000  0.000  0.049  0.000  0.000  0.000  0.000  0.000  0.000  0.049
    3  0.000  0.000  0.380  0.000  0.000  0.000  0.000  0.000  0.000  0.380
    4  0.000  0.000  0.198  0.000  0.000  0.000  0.000  0.000  0.000  0.198
    5  0.000  0.000  0.198  0.000  0.000  0.000  0.000  0.000  0.000  0.198
tot    0.000  0.000  0.838  0.000  0.000  0.000  0.000  0.000  0.000  0.838
ion          s             py             pz             px             dxy            dyz            dz2            dxz          dx2-y2  
    1 -0.000 -0.000  -0.000  0.000  -0.029 -0.104   0.000 -0.000  -0.000 -0.000   0.000 -0.000  -0.000  0.000   0.000 -0.000   0.000 -0.000   0.012
    2  0.000  0.000  -0.000  0.000  -0.061 -0.214   0.000 -0.000   0.000 -0.000  -0.000  0.000  -0.000  0.000   0.000 -0.000   0.000  0.000   0.049
    3 -0.000 -0.000   0.000 -0.000   0.168  0.591  -0.000  0.000   0.000  0.000   0.000  0.000   0.000  0.000   0.000  0.000   0.000  0.000   0.378
    4 -0.000 -0.000   0.000 -0.000   0.122  0.428  -0.000  0.000   0.000  0.000   0.000  0.000   0.000  0.000   0.000  0.000   0.000  0.000   0.198
    5 -0.000 -0.000   0.001 -0.000   0.121  0.428  -0.000  0.000   0.000  0.000   0.000  0.000   0.000  0.000   0.000  0.000   0.000  0.000   0.198
charge 0.000          0.000          0.835          0.000          0.000          0.000          0.000          0.000          0.000          0.835       
 
band    15 # energy    3.01348849 # occ.  2.00000000
 
ion      s     py     pz     px    dxy    dyz    dz2    dxz  x2-y2    tot
    1  0.000  0.012  0.000  0.000  0.000  0.000  0.000  0.000  0.000  0.012
    2  0.000  0.049  0.000  0.000  0.000  0.000  0.000  0.000  0.000  0.049
    3  0.000  0.198  0.000  0.000  0.000  0.000  0.000  0.000  0.000  0.198
    4  0.000  0.198  0.000  0.000  0.000  0.000  0.000  0.000  0.000  0.198
    5  0.000  0.380  0.000  0.000  0.000  0.000  0.000  0.000  0.000  0.380
tot    0.000  0.838  0.000  0.000  0.000  0.000  0.000  0.000  0.000  0.838
ion          s             py             pz             px             dxy            dyz            dz2            dxz          dx2-y2  
    1  0.000  0.000  -0.099  0.042   0.000  0.000  -0.000  0.000   0.000  0.000  -0.000  0.000   0.000 -0.000  -0.000  0.000   0.000 -0.000   0.012
    2  0.000 -0.000  -0.205  0.087   0.000  0.000  -0.000  0.000  -0.000 -0.000  -0.000 -0.000   0.000 -0.000   0.000 -0.000  -0.000 -0.000   0.049
    3  0.000  0.000   0.409 -0.174  -0.000 -0.001   0.000 -0.000   0.000  0.000   0.000  0.000   0.000  0.000   0.000  0.000   0.000  0.000   0.197
    4  0.000  0.000   0.410 -0.174  -0.000 -0.000   0.000 -0.000   0.000  0.000   0.000  0.000   0.000  0.000   0.000  0.000   0.000  0.000   0.198
    5  0.000  0.000   0.566 -0.240  -0.000 -0.000   0.000 -0.000   0.000  0.000   0.000  0.000   0.000  0.000   0.000  0.000   0.000  0.000   0.378
charge 0.000          0.835          0.000          0.000          0.000          0.000          0.000          0.000          0.000          0.835       
 
band    16 # energy    3.01348852 # occ.  2.00000000
 
ion      s     py     pz     px    dxy    dyz    dz2    dxz  x2-y2    tot
    1  0.000  0.000  0.000  0.012  0.000  0.000  0.000  0.000  0.000  0.012
    2  0.000  0.000  0.000  0.049  0.000  0.000  0.000  0.000  0.000  0.049
    3  0.000  0.000  0.000  0.198  0.000  0.000  0.000  0.000  0.000  0.198
    4  0.000  0.000  0.000  0.380  0.000  0.000  0.000  0.000  0.000  0.380
    5  0.000  0.000  0.000  0.198  0.000  0.000  0.000  0.000  0.000  0.198
tot    0.000  0.000  0.000  0.838  0.000  0.000  0.000  0.000  0.000  0.838
ion          s             py             pz             px             dxy            dyz            dz2            dxz          dx2-y2  
    1  0.000  0.000  -0.000  0.000   0.000  0.000   0.047 -0.097   0.000 -0.000  -0.000  0.000   0.000 -0.000  -0.000  0.000  -0.000  0.000   0.012
    2 -0.000 -0.000  -0.000  0.000   0.000  0.000   0.096 -0.200  -0.000  0.000  -0.000 -0.000   0.000 -0.000   0.000 -0.000  -0.000 -0.000   0.049
    3  0.000  0.000   0.000 -0.000  -0.000 -0.000  -0.192  0.401   0.000  0.000   0.000  0.000   0.000  0.000   0.000  0.000   0.000  0.000   0.197
    4  0.000  0.000   0.000 -0.000  -0.000 -0.000  -0.267  0.555   0.000  0.000   0.000  0.000   0.000  0.000   0.000  0.000   0.000  0.000   0.379
    5  0.000  0.000   0.000 -0.000  -0.000 -0.000  -0.193  0.401   0.000  0.000   0.000  0.000   0.000  0.000   0.000  0.000   0.000  0.000   0.198
charge 0.000          0.000          0.000          0.835          0.000          0.000          0.000          0.000          0.000          0.835       
 
band    17 # energy    4.35689376 # occ.  2.00000000
 
ion      s     py     pz     px    dxy    dyz    dz2    dxz  x2-y2    tot
    1  0.000  0.000  0.000  0.000  0.014  0.000  0.000  0.000  0.000  0.014
    2  0.000  0.000  0.000  0.000  0.898  0.000  0.000  0.000  0.000  0.898
    3  0.000  0.000  0.000  0.000  0.000  0.000  0.000  0.000  0.000  0.000
    4  0.000  0.000  0.000  0.000  0.000  0.000  0.000  0.000  0.000  0.000
    5  0.000  0.000  0.000  0.000  0.000  0.000  0.000  0.000  0.000  0.000
tot    0.000  0.000  0.000  0.000  0.912  0.000  0.000  0.000  0.000  0.912
ion          s             py             pz             px             dxy            dyz            dz2            dxz          dx2-y2  
    1 -0.000  0.000   0.000 -0.000  -0.000 -0.000   0.000  0.000  -0.065 -0.097   0.000 -0.000  -0.000 -0.000   0.000 -0.000   0.000 -0.000   0.014
    2 -0.000 -0.000  -0.000  0.000   0.000  0.000  -0.000 -0.000  -0.509 -0.768   0.000 -0.000   0.000  0.000   0.000 -0.000  -0.000 -0.000   0.850
    3 -0.000 -0.000   0.000 -0.000  -0.000  0.000   0.000  0.000   0.000  0.000   0.000  0.000   0.000  0.000   0.000  0.000   0.000  0.000   0.000
    4  0.000  0.000   0.000 -0.000  -0.000 -0.000  -0.000 -0.000   0.000  0.000   0.000  0.000   0.000  0.000   0.000  0.000   0.000  0.000   0.000
    5  0.000 -0.000  -0.000  0.000  -0.000 -0.000   0.000  0.000   0.000  0.000   0.000  0.000   0.000  0.000   0.000  0.000   0.000  0.000   0.000
charge 0.000          0.000          0.000          0.000          0.863          0.000          0.000          0.000          0.000          0.863       
 
band    18 # energy    4.35689450 # occ.  2.00000000
 
ion      s     py     pz     px    dxy    dyz    dz2    dxz  x2-y2    tot
    1  0.000  0.000  0.000  0.000  0.000  0.014  0.000  0.000  0.000  0.014
    2  0.000  0.000  0.000  0.000  0.000  0.898  0.000  0.000  0.000  0.898
    3  0.000  0.000  0.000  0.000  0.000  0.000  0.000  0.000  0.000  0.000
    4  0.000  0.000  0.000  0.000  0.000  0.000  0.000  0.000  0.000  0.000
    5  0.000  0.000  0.000  0.000  0.000  0.000  0.000  0.000  0.000  0.000
tot    0.000  0.000  0.000  0.000  0.000  0.912  0.000  0.000  0.000  0.912
ion          s             py             pz             px             dxy            dyz            dz2            dxz          dx2-y2  
    1 -0.000 -0.000  -0.000  0.000   0.000  0.000  -0.000 -0.000   0.000 -0.000  -0.102 -0.056   0.000  0.000   0.000  0.000  -0.000  0.000   0.014
    2  0.000  0.000   0.000 -0.000  -0.000 -0.000   0.000  0.000   0.000 -0.000  -0.808 -0.443   0.000  0.000   0.000  0.000  -0.000 -0.000   0.850
    3 -0.000 -0.000  -0.000  0.000  -0.000 -0.000  -0.000 -0.000   0.000  0.000   0.000  0.000   0.000  0.000   0.000  0.000   0.000  0.000   0.000
    4 -0.000 -0.000  -0.000  0.000   0.000  0.000   0.000  0.000   0.000  0.000   0.000  0.000   0.000  0.000   0.000  0.000   0.000  0.000   0.000
    5 -0.000 -0.000   0.000 -0.000   0.000  0.000  -0.000 -0.000   0.000  0.000   0.000  0.000   0.000  0.000   0.000  0.000   0.000  0.000   0.000
charge 0.000          0.000          0.000          0.000          0.000          0.863          0.000          0.000          0.000          0.863       
 
band    19 # energy    4.35689454 # occ.  2.00000000
 
ion      s     py     pz     px    dxy    dyz    dz2    dxz  x2-y2    tot
    1  0.000  0.000  0.000  0.000  0.000  0.000  0.000  0.014  0.000  0.014
    2  0.000  0.000  0.000  0.000  0.000  0.000  0.000  0.898  0.000  0.898
    3  0.000  0.000  0.000  0.000  0.000  0.000  0.000  0.000  0.000  0.000
    4  0.000  0.000  0.000  0.000  0.000  0.000  0.000  0.000  0.000  0.000
    5  0.000  0.000  0.000  0.000  0.000  0.000  0.000  0.000  0.000  0.000