<?xml version="1.0" encoding="ISO-8859-1"?>
<modeling>
 <generator>
  <i name="program" type="string">vasp </i>
  <i name="version" type="string">6.1.1  </i>
  <i name="subversion" type="string">19Jun20 (build Jul 17 2020 22:48:28) complex                          parallel </i>
  <i name="platform" type="string">LinuxIFC </i>
  <i name="date" type="string">2020 12 07 </i>
  <i name="time" type="string">18:52:46 </i>
 </generator>
 <incar>
  <i type="string" name="SYSTEM"> SrVO3</i>
  <i type="string" name="ALGO"> Normal</i>
  <i type="logical" name="LSORBIT"> F  </i>
  <i type="int" name="ISPIN">     1</i>
  <i name="EDIFF">      0.00000001</i>
  <i type="int" name="ISYM">     2</i>
  <i name="EMIN">      6.00000000</i>
  <i name="EMAX">      9.00000000</i>
  <i type="int" name="ISMEAR">     2</i>
  <i name="KSPACING">      0.20000000</i>
  <i type="logical" name="LASPH"> T  </i>
  <i type="string" name="ALGO"> Normal</i>
  <i name="EDIFF">      0.00000001</i>
  <i type="logical" name="LASPH"> T  </i>
  <locproj>
   <function>
    <i name="radial_type" type="int">       1 </i>
    <i name="species" type="int">       2 </i>
    <v type="int" name="nlm">       1        2        1 </v>
    <i name="za">      1.00000000 </i>
    <i name="poscar_site" type="int">       2 </i>
    <v name="position">     -0.50000000      -0.50000000      -0.50000000 </v>
   </function>
   <function>
    <i name="radial_type" type="int">       1 </i>
    <i name="species" type="int">       2 </i>
    <v type="int" name="nlm">       1        2        2 </v>
    <i name="za">      1.00000000 </i>
    <i name="poscar_site" type="int">       2 </i>
    <v name="position">     -0.50000000      -0.50000000      -0.50000000 </v>
   </function>
   <function>
    <i name="radial_type" type="int">       1 </i>
    <i name="species" type="int">       2 </i>
    <v type="int" name="nlm">       1        2        3 </v>
    <i name="za">      1.00000000 </i>
    <i name="poscar_site" type="int">       2 </i>
    <v name="position">     -0.50000000      -0.50000000      -0.50000000 </v>
   </function>
   <function>
    <i name="radial_type" type="int">       1 </i>
    <i name="species" type="int">       2 </i>
    <v type="int" name="nlm">       1        2        4 </v>
    <i name="za">      1.00000000 </i>
    <i name="poscar_site" type="int">       2 </i>
    <v name="position">     -0.50000000      -0.50000000      -0.50000000 </v>
   </function>
   <function>
    <i name="radial_type" type="int">       1 </i>
    <i name="species" type="int">       2 </i>
    <v type="int" name="nlm">       1        2        5 </v>
    <i name="za">      1.00000000 </i>
    <i name="poscar_site" type="int">       2 </i>
    <v name="position">     -0.50000000      -0.50000000      -0.50000000 </v>
   </function>
  </locproj>
  <i type="int" name="ISPIN">     1</i>
  <i type="logical" name="LSORBIT"> F  </i>
 </incar>
 <structure name="primitive_cell" >
  <crystal>
   <varray name="basis" >
    <v>       3.84652000       0.00000000       0.00000000 </v>
    <v>       0.00000000       3.84652000       0.00000000 </v>
    <v>       0.00000000       0.00000000       3.84652000 </v>
   </varray>
   <i name="volume">     56.91201793 </i>
   <varray name="rec_basis" >
    <v>       0.25997525       0.00000000       0.00000000 </v>
    <v>       0.00000000       0.25997525       0.00000000 </v>
    <v>       0.00000000       0.00000000       0.25997525 </v>
   </varray>
  </crystal>
  <varray name="positions" >
   <v>       0.00000000       0.00000000       0.00000000 </v>
   <v>       0.50000000       0.50000000       0.50000000 </v>
   <v>       0.50000000       0.50000000       0.00000000 </v>
   <v>       0.00000000       0.50000000       0.50000000 </v>
   <v>       0.50000000       0.00000000       0.50000000 </v>
  </varray>
 </structure>
 <varray name="primitive_index" >
  <v type="int" >        1 </v>
  <v type="int" >        2 </v>
  <v type="int" >        3 </v>
  <v type="int" >        4 </v>
  <v type="int" >        5 </v>
 </varray>
 <kpoints>
  <generation param="Gamma">
   <v type="int" name="divisions">       9        9        9 </v>
   <v name="usershift">      0.00000000       0.00000000       0.00000000 </v>
   <v name="genvec1">      0.11111111       0.00000000       0.00000000 </v>
   <v name="genvec2">      0.00000000       0.11111111       0.00000000 </v>
   <v name="genvec3">      0.00000000       0.00000000       0.11111111 </v>
   <v name="shift">      0.00000000       0.00000000       0.00000000 </v>
  </generation>
  <varray name="kpointlist" >
   <v>       0.00000000       0.00000000       0.00000000 </v>
   <v>       0.11111111       0.00000000       0.00000000 </v>
   <v>       0.22222222       0.00000000       0.00000000 </v>
   <v>       0.33333333       0.00000000       0.00000000 </v>
   <v>       0.44444444       0.00000000       0.00000000 </v>
   <v>       0.11111111       0.11111111       0.00000000 </v>
   <v>       0.22222222       0.11111111       0.00000000 </v>
   <v>       0.33333333       0.11111111       0.00000000 </v>
   <v>       0.44444444       0.11111111       0.00000000 </v>
   <v>       0.22222222       0.22222222       0.00000000 </v>
   <v>       0.33333333       0.22222222       0.00000000 </v>
   <v>       0.44444444       0.22222222       0.00000000 </v>
   <v>       0.33333333       0.33333333       0.00000000 </v>
   <v>       0.44444444       0.33333333       0.00000000 </v>
   <v>       0.44444444       0.44444444       0.00000000 </v>
   <v>       0.11111111       0.11111111       0.11111111 </v>
   <v>       0.22222222       0.11111111       0.11111111 </v>
   <v>       0.33333333       0.11111111       0.11111111 </v>
   <v>       0.44444444       0.11111111       0.11111111 </v>
   <v>       0.22222222       0.22222222       0.11111111 </v>
   <v>       0.33333333       0.22222222       0.11111111 </v>
   <v>       0.44444444       0.22222222       0.11111111 </v>
   <v>       0.33333333       0.33333333       0.11111111 </v>
   <v>       0.44444444       0.33333333       0.11111111 </v>
   <v>       0.44444444       0.44444444       0.11111111 </v>
   <v>       0.22222222       0.22222222       0.22222222 </v>
   <v>       0.33333333       0.22222222       0.22222222 </v>
   <v>       0.44444444       0.22222222       0.22222222 </v>
   <v>       0.33333333       0.33333333       0.22222222 </v>
   <v>       0.44444444       0.33333333       0.22222222 </v>
   <v>       0.44444444       0.44444444       0.22222222 </v>
   <v>       0.33333333       0.33333333       0.33333333 </v>
   <v>       0.44444444       0.33333333       0.33333333 </v>
   <v>       0.44444444       0.44444444       0.33333333 </v>
   <v>       0.44444444       0.44444444       0.44444444 </v>
  </varray>
  <varray name="weights" >
   <v>       0.00137174 </v>
   <v>       0.00823045 </v>
   <v>       0.00823045 </v>
   <v>       0.00823045 </v>
   <v>       0.00823045 </v>
   <v>       0.01646091 </v>
   <v>       0.03292181 </v>
   <v>       0.03292181 </v>
   <v>       0.03292181 </v>
   <v>       0.01646091 </v>
   <v>       0.03292181 </v>
   <v>       0.03292181 </v>
   <v>       0.01646091 </v>
   <v>       0.03292181 </v>
   <v>       0.01646091 </v>
   <v>       0.01097394 </v>
   <v>       0.03292181 </v>
   <v>       0.03292181 </v>
   <v>       0.03292181 </v>
   <v>       0.03292181 </v>
   <v>       0.06584362 </v>
   <v>       0.06584362 </v>
   <v>       0.03292181 </v>
   <v>       0.06584362 </v>
   <v>       0.03292181 </v>
   <v>       0.01097394 </v>
   <v>       0.03292181 </v>
   <v>       0.03292181 </v>
   <v>       0.03292181 </v>
   <v>       0.06584362 </v>
   <v>       0.03292181 </v>
   <v>       0.01097394 </v>
   <v>       0.03292181 </v>
   <v>       0.03292181 </v>
   <v>       0.01097394 </v>
  </varray>
 </kpoints>
 <parameters>
  <separator name="general" >
   <i type="string" name="SYSTEM">SrVO3</i>
   <i type="logical" name="LCOMPAT"> F  </i>
  </separator>
  <separator name="electronic" >
   <i type="string" name="PREC">normal</i>
   <i name="ENMAX">    400.00000000</i>
   <i name="ENAUG">    605.39200000</i>
   <i name="EDIFF">      0.00000001</i>
   <i type="int" name="IALGO">    38</i>
   <i type="int" name="IWAVPR">    10</i>
   <i type="int" name="NBANDS">    20</i>
   <i type="int" name="NBANDSLOW">    -1</i>
   <i type="int" name="NBANDSHIGH">    -1</i>
   <i name="NELECT">     33.00000000</i>
   <i type="int" name="TURBO">     0</i>
   <i type="int" name="IRESTART">     0</i>
   <i type="int" name="NREBOOT">     0</i>
   <i type="int" name="NMIN">     0</i>
   <i name="EREF">      0.00000000</i>
   <separator name="electronic smearing" >
    <i type="int" name="ISMEAR">     2</i>
    <i name="SIGMA">      0.20000000</i>
    <i name="KSPACING">      0.20000000</i>
    <i type="logical" name="KGAMMA"> T  </i>
    <i type="logical" name="KBLOWUP"> T  </i>
   </separator>
   <separator name="electronic projectors" >
    <i type="logical" name="LREAL"> F  </i>
    <v name="ROPT">      0.00000000      0.00000000      0.00000000</v>
    <i type="int" name="LMAXPAW">  -100</i>
    <i type="int" name="LMAXMIX">     2</i>
    <i type="logical" name="NLSPLINE"> F  </i>
   </separator>
   <separator name="electronic startup" >
    <i type="int" name="ISTART">     0</i>
    <i type="int" name="ICHARG">     2</i>
    <i type="int" name="INIWAV">     1</i>
   </separator>
   <separator name="electronic spin" >
    <i type="int" name="ISPIN">     1</i>
    <i type="logical" name="LNONCOLLINEAR"> F  </i>
    <v name="MAGMOM">      1.00000000      1.00000000      1.00000000      1.00000000      1.00000000</v>
    <i name="NUPDOWN">     -1.00000000</i>
    <i type="logical" name="LSORBIT"> F  </i>
    <v name="SAXIS">      0.00000000      0.00000000      1.00000000</v>
    <i type="logical" name="LSPIRAL"> F  </i>
    <v name="QSPIRAL">      0.00000000      0.00000000      0.00000000</v>
    <i type="logical" name="LZEROZ"> F  </i>
   </separator>
   <separator name="electronic exchange-correlation" >
    <i type="logical" name="LASPH"> T  </i>
    <i type="logical" name="LMETAGGA"> F  </i>
   </separator>
   <separator name="electronic convergence" >
    <i type="int" name="NELM">    60</i>
    <i type="int" name="NELMDL">    -5</i>
    <i type="int" name="NELMIN">     2</i>
    <i name="ENINI">    400.00000000</i>
    <separator name="electronic convergence detail" >
     <i type="logical" name="LDIAG"> T  </i>
     <i type="logical" name="LSUBROT"> F  </i>
     <i name="WEIMIN">      0.00000000</i>
     <i name="EBREAK">      0.00000000</i>
     <i name="DEPER">      0.30000000</i>
     <i type="int" name="NRMM">     4</i>
     <i name="TIME">      0.40000000</i>
    </separator>
   </separator>
   <separator name="electronic mixer" >
    <i name="AMIX">      0.40000000</i>
    <i name="BMIX">      1.00000000</i>
    <i name="AMIN">      0.10000000</i>
    <i name="AMIX_MAG">      1.60000000</i>
    <i name="BMIX_MAG">      1.00000000</i>
    <separator name="electronic mixer details" >
     <i type="int" name="IMIX">     4</i>
     <i type="logical" name="MIXFIRST"> F  </i>
     <i type="int" name="MAXMIX">   -45</i>
     <i name="WC">    100.00000000</i>
     <i type="int" name="INIMIX">     1</i>
     <i type="int" name="MIXPRE">     1</i>
     <i type="int" name="MREMOVE">     5</i>
    </separator>
   </separator>
   <separator name="electronic dipolcorrection" >
    <i type="logical" name="LDIPOL"> F  </i>
    <i type="logical" name="LMONO"> F  </i>
    <i type="int" name="IDIPOL">     0</i>
    <i name="EPSILON">      1.00000000</i>
    <v name="DIPOL">   -100.00000000   -100.00000000   -100.00000000</v>
    <i name="EFIELD">      0.00000000</i>
   </separator>
  </separator>
  <separator name="grids" >
   <i type="int" name="NGX">    20</i>
   <i type="int" name="NGY">    20</i>
   <i type="int" name="NGZ">    20</i>
   <i type="int" name="NGXF">    40</i>
   <i type="int" name="NGYF">    40</i>
   <i type="int" name="NGZF">    40</i>
   <i type="logical" name="ADDGRID"> F  </i>
  </separator>
  <separator name="ionic" >
   <i type="int" name="NSW">     0</i>
   <i type="int" name="IBRION">    -1</i>
   <i type="int" name="MDALGO">     0</i>
   <i type="int" name="ISIF">     2</i>
   <i name="PSTRESS">      0.00000000</i>
   <i name="EDIFFG">      0.00000010</i>
   <i type="int" name="NFREE">     0</i>
   <i name="POTIM">      0.50000000</i>
   <i name="SMASS">     -3.00000000</i>
   <i name="SCALEE">      1.00000000</i>
  </separator>
  <separator name="ionic md" >
   <i name="TEBEG">      0.00010000</i>
   <i name="TEEND">      0.00010000</i>
   <i type="int" name="NBLOCK">     1</i>
   <i type="int" name="KBLOCK">     1</i>
   <i type="int" name="NPACO">   256</i>
   <i name="APACO">     16.00000000</i>
  </separator>
  <separator name="symmetry" >
   <i type="int" name="ISYM">     2</i>
   <i name="SYMPREC">      0.00001000</i>
  </separator>
  <separator name="dos" >
   <i type="int" name="LORBIT">    14</i>
   <v name="RWIGS">     -1.00000000     -1.00000000     -1.00000000</v>
   <i type="int" name="NEDOS">   301</i>
   <i name="EMIN">      6.00000000</i>
   <i name="EMAX">      9.00000000</i>
   <i name="EFERMI">      0.00000000</i>
  </separator>
  <separator name="writing" >
   <i type="int" name="NWRITE">     2</i>
   <i type="logical" name="LWAVE"> T  </i>
   <i type="logical" name="LDOWNSAMPLE"> F  </i>
   <i type="logical" name="LCHARG"> T  </i>
   <i type="logical" name="LPARD"> F  </i>
   <i type="logical" name="LVTOT"> F  </i>
   <i type="logical" name="LVHAR"> F  </i>
   <i type="logical" name="LELF"> F  </i>
   <i type="logical" name="LOPTICS"> F  </i>
   <v name="STM">      0.00000000      0.00000000      0.00000000      0.00000000      0.00000000      0.00000000      0.00000000</v>
  </separator>
  <separator name="performance" >
   <i type="int" name="NPAR">     4</i>
   <i type="int" name="NSIM">     4</i>
   <i type="int" name="NBLK">    -1</i>
   <i type="logical" name="LPLANE"> T  </i>
   <i type="logical" name="LSCALAPACK"> T  </i>
   <i type="logical" name="LSCAAWARE"> F  </i>
   <i type="logical" name="LSCALU"> F  </i>
   <i type="logical" name="LASYNC"> F  </i>
   <i type="logical" name="LORBITALREAL"> F  </i>
  </separator>
  <separator name="miscellaneous" >
   <i type="int" name="IDIOT">     3</i>
   <i type="int" name="PHON_NSTRUCT">    -1</i>
   <i type="logical" name="LMUSIC"> F  </i>
   <v name="POMASS">     87.62000000     50.94100000     16.00000000</v>
   <v name="DARWINR">      0.00000000      0.00000000      0.00000000</v>
   <v name="DARWINV">      1.00000000      1.00000000      1.00000000</v>
   <i type="logical" name="LCORR"> T  </i>
  </separator>
  <i type="logical" name="GGA_COMPAT"> T  </i>
  <i type="logical" name="LBERRY"> F  </i>
  <i type="int" name="ICORELEVEL">     0</i>
  <i type="logical" name="LDAU"> F  </i>
  <i type="int" name="I_CONSTRAINED_M">     0</i>
  <separator name="electronic exchange-correlation" >
   <i type="string" name="GGA">--</i>
   <i type="int" name="VOSKOWN">     0</i>
   <i type="logical" name="LHFCALC"> F  </i>
   <i type="string" name="PRECFOCK"></i>
   <i type="logical" name="LSYMGRAD"> F  </i>
   <i type="logical" name="LHFONE"> F  </i>
   <i type="logical" name="LRHFCALC"> F  </i>
   <i type="logical" name="LTHOMAS"> F  </i>
   <i type="logical" name="LMODELHF"> F  </i>
   <i type="logical" name="LFOCKACE"> F  </i>
   <i name="ENCUT4O">     -1.00000000</i>
   <i type="int" name="EXXOEP">     0</i>
   <i type="int" name="FOURORBIT">     0</i>
   <i name="AEXX">      0.00000000</i>
   <i name="HFALPHA">      0.00000000</i>
   <i name="MCALPHA">      0.00000000</i>
   <i name="ALDAX">      1.00000000</i>
   <i name="AGGAX">      1.00000000</i>
   <i name="ALDAC">      1.00000000</i>
   <i name="AGGAC">      1.00000000</i>
   <i type="int" name="NKREDX">     1</i>
   <i type="int" name="NKREDY">     1</i>
   <i type="int" name="NKREDZ">     1</i>
   <i type="logical" name="SHIFTRED"> F  </i>
   <i type="logical" name="ODDONLY"> F  </i>
   <i type="logical" name="EVENONLY"> F  </i>
   <i type="int" name="LMAXFOCK">     0</i>
   <i type="int" name="NMAXFOCKAE">     0</i>
   <i type="logical" name="LFOCKAEDFT"> F  </i>
   <i name="HFSCREEN">      0.00000000</i>
   <i name="HFSCREENC">      0.00000000</i>
   <i type="int" name="NBANDSGWLOW">     0</i>
  </separator>
  <separator name="vdW DFT" >
   <i type="logical" name="LUSE_VDW"> F  </i>
   <i name="Zab_VDW">     -0.84910000</i>
   <i name="PARAM1">      0.12340000</i>
   <i name="PARAM2">      1.00000000</i>
   <i name="PARAM3">      0.00000000</i>
  </separator>
  <separator name="model GW" >
   <i type="int" name="MODEL_GW">     0</i>
   <i name="MODEL_EPS0">      6.82944215</i>
   <i name="MODEL_ALPHA">      1.00000000</i>
  </separator>
  <separator name="linear response parameters" >
   <i type="logical" name="LEPSILON"> F  </i>
   <i type="logical" name="LRPA"> F  </i>
   <i type="logical" name="LNABLA"> F  </i>
   <i type="logical" name="LVEL"> F  </i>
   <i type="int" name="KINTER">     0</i>
   <i name="CSHIFT">      0.10000000</i>
   <i name="OMEGAMAX">     -1.00000000</i>
   <i name="DEG_THRESHOLD">      0.00200000</i>
   <i name="RTIME">     -0.10000000</i>
   <i name="WPLASMAI">      0.00000000</i>
   <v name="DFIELD">      0.00000000      0.00000000      0.00000000</v>
   <v name="WPLASMA">      0.00000000      0.00000000      0.00000000      0.00000000      0.00000000      0.00000000      0.00000000      0.00000000      0.00000000</v>
  </separator>
  <separator name="orbital magnetization" >
   <i type="logical" name="NUCIND"> F  </i>
   <v name="MAGPOS">      0.00000000      0.00000000      0.00000000</v>
   <i type="logical" name="LNICSALL"> T  </i>
   <i type="logical" name="ORBITALMAG"> F  </i>
   <i type="logical" name="LMAGBLOCH"> F  </i>
   <i type="logical" name="LCHIMAG"> F  </i>
   <i type="logical" name="LGAUGE"> T  </i>
   <i type="int" name="MAGATOM">     0</i>
   <v name="MAGDIPOL">      0.00000000      0.00000000      0.00000000</v>
   <v name="AVECCONST">      0.00000000      0.00000000      0.00000000</v>
  </separator>
  <separator name="response functions" >
   <i type="logical" name="LFINITE_TEMPERATURE"> F  </i>
   <i type="logical" name="LADDER"> F  </i>
   <i type="logical" name="LRPAFORCE"> F  </i>
   <i type="logical" name="LFXC"> F  </i>
   <i type="logical" name="LHARTREE"> T  </i>
   <i type="int" name="IBSE">     0</i>
   <v type="int" name="KPOINT">    -1     0     0     0</v>
   <i type="logical" name="LTCTC"> F  </i>
   <i type="logical" name="LTCTE"> F  </i>
   <i type="logical" name="LTETE"> F  </i>
   <i type="logical" name="LTRIPLET"> F  </i>
   <i type="logical" name="LFXCEPS"> F  </i>
   <i type="logical" name="LFXHEG"> F  </i>
   <i type="int" name="NATURALO">     2</i>
   <i type="logical" name="LHOLEGF"> F  </i>
   <i type="logical" name="L2ORDER"> F  </i>
   <i type="logical" name="LDMP1"> F  </i>
   <i type="logical" name="LMP2LT"> F  </i>
   <i type="logical" name="LSMP2LT"> F  </i>
   <i type="logical" name="LGWLF"> F  </i>
   <i name="ENCUTGW">     -2.00000000</i>
   <i name="ENCUTGWSOFT">     -2.00000000</i>
   <i name="ENCUTLF">     -1.00000000</i>
   <i type="logical" name="LESF_SPLINES"> F  </i>
   <i type="int" name="LMAXMP2">    -1</i>
   <i name="SCISSOR">      0.00000000</i>
   <i type="int" name="NOMEGA">     0</i>
   <i type="int" name="NOMEGAR">     0</i>
   <i type="int" name="NBANDSGW">    -1</i>
   <i type="int" name="NBANDSO">    -1</i>
   <i type="int" name="NBANDSV">    -1</i>
   <i type="int" name="NELM">     1</i>
   <i type="int" name="NELMHF">     1</i>
   <i type="int" name="DIM">     3</i>
   <i type="int" name="IESPILON">     4</i>
   <i type="int" name="ANTIRES">     0</i>
   <i name="OMEGAMAX">    -30.00000000</i>
   <i name="OMEGAMIN">    -30.00000000</i>
   <i name="OMEGATL">   -200.00000000</i>
   <i type="int" name="OMEGAGRID">     0</i>
   <i name="CSHIFT">     -0.10000000</i>
   <i type="logical" name="LSELFENERGY"> F  </i>
   <i type="logical" name="LSPECTRAL"> F  </i>
   <i type="logical" name="LSPECTRALGW"> F  </i>
   <i type="logical" name="LSINGLES"> F  </i>
   <i type="logical" name="LFERMIGW"> F  </i>
   <i type="logical" name="ODDONLYGW"> F  </i>
   <i type="logical" name="EVENONLYGW"> F  </i>
   <i type="int" name="NKREDLFX">     1</i>
   <i type="int" name="NKREDLFY">     1</i>
   <i type="int" name="NKREDLFZ">     1</i>
   <i type="int" name="MAXMEM">  2800</i>
   <i type="int" name="TELESCOPE">     0</i>
   <i type="int" name="NTAUPAR">    -1</i>
   <i type="int" name="NOMEGAPAR">    -1</i>
   <i name="LAMBDA">      1.00000000</i>
  </separator>
  <separator name="External order field" >
   <i name="OFIELD_KAPPA">      0.00000000</i>
   <v name="OFIELD_K">      0.00000000      0.00000000      0.00000000</v>
   <i name="OFIELD_Q6_NEAR">      0.00000000</i>
   <i name="OFIELD_Q6_FAR">      0.00000000</i>
   <i name="OFIELD_A">      0.00000000</i>
  </separator>
 </parameters>
 <atominfo>
  <atoms>       5 </atoms>
  <types>       3 </types>
  <array name="atoms" >
   <dimension dim="1">ion</dimension>
   <field type="string">element</field>
   <field type="int">atomtype</field>
   <set>
    <rc><c>Sr</c><c>   1</c></rc>
    <rc><c>V </c><c>   2</c></rc>
    <rc><c>O </c><c>   3</c></rc>
    <rc><c>O </c><c>   3</c></rc>
    <rc><c>O </c><c>   3</c></rc>
   </set>
  </array>
  <array name="atomtypes" >
   <dimension dim="1">type</dimension>
   <field type="int">atomspertype</field>
   <field type="string">element</field>
   <field>mass</field>
   <field>valence</field>
   <field type="string">pseudopotential</field>
   <set>
    <rc><c>   1</c><c>Sr</c><c>     87.62000000</c><c>     10.00000000</c><c>  PAW_PBE Sr_sv 07Sep2000               </c></rc>
    <rc><c>   1</c><c>V </c><c>     50.94100000</c><c>      5.00000000</c><c>  PAW_PBE V 08Apr2002                   </c></rc>
    <rc><c>   3</c><c>O </c><c>     16.00000000</c><c>      6.00000000</c><c>  PAW_PBE O 08Apr2002                   </c></rc>
   </set>
  </array>
 </atominfo>
 <structure name="initialpos" >
  <crystal>
   <varray name="basis" >
    <v>       3.84652000       0.00000000       0.00000000 </v>
    <v>       0.00000000       3.84652000       0.00000000 </v>
    <v>       0.00000000       0.00000000       3.84652000 </v>
   </varray>
   <i name="volume">     56.91201793 </i>
   <varray name="rec_basis" >
    <v>       0.25997525       0.00000000       0.00000000 </v>
    <v>       0.00000000       0.25997525       0.00000000 </v>
    <v>       0.00000000       0.00000000       0.25997525 </v>
   </varray>
  </crystal>
  <varray name="positions" >
   <v>       0.00000000       0.00000000       0.00000000 </v>
   <v>       0.50000000       0.50000000       0.50000000 </v>
   <v>       0.50000000       0.50000000       0.00000000 </v>
   <v>       0.00000000       0.50000000       0.50000000 </v>
   <v>       0.50000000       0.00000000       0.50000000 </v>
  </varray>
 </structure>
 <calculation>
  <scstep>
   <time name="dav">    0.50    0.61</time>
   <time name="total">    0.88    1.01</time>
   <energy>
    <i name="alphaZ">    184.93671151 </i>
    <i name="ewald">  -2047.90029510 </i>
    <i name="hartreedc">   -400.69392107 </i>
    <i name="XCdc">     73.34114574 </i>
    <i name="pawpsdc">   1877.08810594 </i>
    <i name="pawaedc">  -1819.20425507 </i>
    <i name="eentropy">      0.00212159 </i>
    <i name="bandstr">    150.25023861 </i>
    <i name="atom">   2310.68521368 </i>
    <i name="e_fr_energy">    328.50506582 </i>
    <i name="e_wo_entrp">    328.50294423 </i>
    <i name="e_0_energy">    328.50453542 </i>
   </energy>
  </scstep>
  <scstep>
   <time name="dav">    0.54    0.55</time>
   <time name="total">    0.54    0.56</time>
   <energy>
    <i name="e_fr_energy">     11.48577119 </i>
    <i name="e_wo_entrp">     11.49292668 </i>
    <i name="e_0_energy">     11.48756006 </i>
   </energy>
  </scstep>
  <scstep>
   <time name="dav">    0.58    0.58</time>
   <time name="total">    0.58    0.58</time>
   <energy>
    <i name="e_fr_energy">    -46.68249752 </i>
    <i name="e_wo_entrp">    -46.68282425 </i>
    <i name="e_0_energy">    -46.68257920 </i>
   </energy>
  </scstep>
  <scstep>
   <time name="dav">    0.60    0.60</time>
   <time name="total">    0.60    0.60</time>
   <energy>
    <i name="e_fr_energy">    -49.44870140 </i>
    <i name="e_wo_entrp">    -49.44610231 </i>
    <i name="e_0_energy">    -49.44805163 </i>
   </energy>
  </scstep>
  <scstep>
   <time name="dav">    0.59    0.59</time>
   <time name="total">    0.63    0.63</time>
   <energy>
    <i name="e_fr_energy">    -49.54986675 </i>
    <i name="e_wo_entrp">    -49.54693096 </i>
    <i name="e_0_energy">    -49.54913280 </i>
   </energy>
  </scstep>
  <scstep>
   <time name="dav">    0.56    0.56</time>
   <time name="total">    0.89    0.91</time>
   <energy>
    <i name="e_fr_energy">    -40.47911594 </i>
    <i name="e_wo_entrp">    -40.46491257 </i>
    <i name="e_0_energy">    -40.47556510 </i>
   </energy>
  </scstep>
  <scstep>
   <time name="dav">    0.53    0.53</time>
   <time name="total">    0.86    0.86</time>
   <energy>
    <i name="e_fr_energy">    -39.90428135 </i>
    <i name="e_wo_entrp">    -39.89425092 </i>
    <i name="e_0_energy">    -39.90177374 </i>
   </energy>
  </scstep>
  <scstep>
   <time name="dav">    0.54    0.53</time>
   <time name="total">    0.86    0.87</time>
   <energy>
    <i name="e_fr_energy">    -39.09879027 </i>
    <i name="e_wo_entrp">    -39.08647868 </i>
    <i name="e_0_energy">    -39.09571237 </i>
   </energy>
  </scstep>
  <scstep>
   <time name="dav">    0.56    0.56</time>
   <time name="total">    0.90    0.90</time>
   <energy>
    <i name="e_fr_energy">    -39.09359976 </i>
    <i name="e_wo_entrp">    -39.08067758 </i>
    <i name="e_0_energy">    -39.09036921 </i>
   </energy>
  </scstep>
  <scstep>
   <time name="dav">    0.53    0.53</time>
   <time name="total">    0.86    0.86</time>
   <energy>
    <i name="e_fr_energy">    -39.08214692 </i>
    <i name="e_wo_entrp">    -39.06966017 </i>
    <i name="e_0_energy">    -39.07902523 </i>
   </energy>
  </scstep>
  <scstep>
   <time name="dav">    0.53    0.53</time>
   <time name="total">    0.86    0.86</time>
   <energy>
    <i name="e_fr_energy">    -39.07420813 </i>
    <i name="e_wo_entrp">    -39.06155194 </i>
    <i name="e_0_energy">    -39.07104408 </i>
   </energy>
  </scstep>
  <scstep>
   <time name="dav">    0.58    0.58</time>
   <time name="total">    0.91    0.91</time>
   <energy>
    <i name="e_fr_energy">    -39.07424311 </i>
    <i name="e_wo_entrp">    -39.06161973 </i>
    <i name="e_0_energy">    -39.07108726 </i>
   </energy>
  </scstep>
  <scstep>
   <time name="dav">    0.56    0.56</time>
   <time name="total">    0.89    0.89</time>
   <energy>
    <i name="e_fr_energy">    -39.07422311 </i>
    <i name="e_wo_entrp">    -39.06157974 </i>
    <i name="e_0_energy">    -39.07106227 </i>
   </energy>
  </scstep>
  <scstep>
   <time name="dav">    0.57    0.57</time>
   <time name="total">    0.90    0.91</time>
   <energy>
    <i name="e_fr_energy">    -39.07422358 </i>
    <i name="e_wo_entrp">    -39.06158236 </i>
    <i name="e_0_energy">    -39.07106327 </i>
   </energy>
  </scstep>
  <scstep>
   <time name="dav">    0.55    0.55</time>
   <time name="total">    0.88    0.88</time>
   <energy>
    <i name="e_fr_energy">    -39.07422426 </i>
    <i name="e_wo_entrp">    -39.06158082 </i>
    <i name="e_0_energy">    -39.07106340 </i>
   </energy>
  </scstep>
  <scstep>
   <time name="dav">    0.53    0.53</time>
   <time name="total">    0.86    0.90</time>
   <energy>
    <i name="e_fr_energy">    -39.07422137 </i>
    <i name="e_wo_entrp">    -39.06158213 </i>
    <i name="e_0_energy">    -39.07106156 </i>
   </energy>
  </scstep>
  <scstep>
   <time name="dav">    0.48    0.48</time>
   <time name="total">    0.82    0.82</time>
   <energy>
    <i name="e_fr_energy">    -39.07422141 </i>
    <i name="e_wo_entrp">    -39.06158211 </i>
    <i name="e_0_energy">    -39.07106158 </i>
   </energy>
  </scstep>
  <scstep>
   <time name="dav">    0.39    0.39</time>
   <time name="total">    0.72    0.72</time>
   <energy>
    <i name="e_fr_energy">    -39.07422147 </i>
    <i name="e_wo_entrp">    -39.06158215 </i>
    <i name="e_0_energy">    -39.07106164 </i>
   </energy>
  </scstep>
  <scstep>
   <time name="dav">    0.28    0.28</time>
   <time name="total">    0.57    0.57</time>
   <energy>
    <i name="alphaZ">    184.93671151 </i>
    <i name="ewald">  -2047.90029510 </i>
    <i name="hartreedc">   -428.03833118 </i>
    <i name="XCdc">     76.43555706 </i>
    <i name="pawpsdc">   3792.14578940 </i>
    <i name="pawaedc">  -3741.07990677 </i>
    <i name="eentropy">     -0.01263929 </i>
    <i name="bandstr">   -186.24632078 </i>
    <i name="atom">   2310.68521368 </i>
    <i name="e_fr_energy">    -39.07422148 </i>
    <i name="e_wo_entrp">    -39.06158218 </i>
    <i name="e_0_energy">    -39.07106165 </i>
   </energy>
  </scstep>
  <structure>
   <crystal>
    <varray name="basis" >
     <v>       3.84652000       0.00000000       0.00000000 </v>
     <v>       0.00000000       3.84652000       0.00000000 </v>
     <v>       0.00000000       0.00000000       3.84652000 </v>
    </varray>
    <i name="volume">     56.91201793 </i>
    <varray name="rec_basis" >
     <v>       0.25997525       0.00000000       0.00000000 </v>
     <v>       0.00000000       0.25997525       0.00000000 </v>
     <v>       0.00000000       0.00000000       0.25997525 </v>
    </varray>
   </crystal>
   <varray name="positions" >
    <v>       0.00000000       0.00000000       0.00000000 </v>
    <v>       0.50000000       0.50000000       0.50000000 </v>
    <v>       0.50000000       0.50000000       0.00000000 </v>
    <v>       0.00000000       0.50000000       0.50000000 </v>
    <v>       0.50000000       0.00000000       0.50000000 </v>
   </varray>
  </structure>
  <varray name="forces" >
   <v>      -0.00000000      -0.00000000      -0.00000000 </v>
   <v>       0.00000000      -0.00000000      -0.00000000 </v>
   <v>       0.00000000       0.00000000      -0.00000000 </v>
   <v>      -0.00000000       0.00000000       0.00000000 </v>
   <v>      -0.00000000      -0.00000000       0.00000000 </v>
  </varray>
  <varray name="stress" >
   <v>     -26.40163234      -0.00000000      -0.00000000 </v>
   <v>       0.00000000     -26.40163234       0.00000000 </v>
   <v>      -0.00000000       0.00000000     -26.40163234 </v>
  </varray>
  <energy>
   <i name="e_fr_energy">    -39.07422148 </i>
   <i name="e_wo_entrp">    -39.06158218 </i>
   <i name="e_0_energy">    -39.07106165 </i>
  </energy>
  <time name="totalsc">   16.29   16.51</time>
  <eigenvalues>
   <array>
    <dimension dim="1">band</dimension>
    <dimension dim="2">kpoint</dimension>
    <dimension dim="3">spin</dimension>
    <field>eigene</field>
    <field>occ</field>
    <set>
     <set comment="spin 1">
      <set comment="kpoint 1">
       <r>  -29.1618    1.0000 </r>
       <r>  -14.3463    1.0000 </r>
       <r>  -13.1595    1.0000 </r>
       <r>  -13.1595    1.0000 </r>
       <r>  -11.1640    1.0000 </r>
       <r>  -11.1640    1.0000 </r>
       <r>  -11.1640    1.0000 </r>
       <r>    0.2197    1.0000 </r>
       <r>    0.2197    1.0000 </r>
       <r>    0.2197    1.0000 </r>
       <r>    2.1739    1.0000 </r>
       <r>    2.1739    1.0000 </r>
       <r>    2.1739    1.0000 </r>
       <r>    3.0135    1.0000 </r>
       <r>    3.0135    1.0000 </r>
       <r>    3.0135    1.0000 </r>
       <r>    4.3569    1.0000 </r>
       <r>    4.3569    1.0000 </r>
       <r>    4.3569    1.0000 </r>
       <r>    6.5014    0.0000 </r>
      </set>
      <set comment="kpoint 2">
       <r>  -29.1584    1.0000 </r>
       <r>  -14.3488    1.0000 </r>
       <r>  -13.1863    1.0000 </r>
       <r>  -13.1541    1.0000 </r>
       <r>  -11.1569    1.0000 </r>
       <r>  -11.1569    1.0000 </r>
       <r>  -11.0760    1.0000 </r>
       <r>    0.0432    1.0000 </r>
       <r>    0.2129    1.0000 </r>
       <r>    0.2129    1.0000 </r>
       <r>    1.9705    1.0000 </r>
       <r>    1.9705    1.0000 </r>
       <r>    2.0582    1.0000 </r>
       <r>    2.5990    1.0000 </r>
       <r>    2.9020    1.0000 </r>
       <r>    2.9020    1.0000 </r>
       <r>    4.3702    1.0000 </r>
       <r>    4.6844    0.9999 </r>
       <r>    4.6844    0.9999 </r>
       <r>    6.5040    0.0000 </r>
      </set>
      <set comment="kpoint 3">
       <r>  -29.1496    1.0000 </r>
       <r>  -14.3804    1.0000 </r>
       <r>  -13.1998    1.0000 </r>
       <r>  -13.1407    1.0000 </r>
       <r>  -11.1388    1.0000 </r>
       <r>  -11.1388    1.0000 </r>
       <r>  -10.8775    1.0000 </r>
       <r>   -0.4043    1.0000 </r>
       <r>    0.1981    1.0000 </r>
       <r>    0.1981    1.0000 </r>
       <r>    1.5349    1.0000 </r>
       <r>    1.5349    1.0000 </r>
       <r>    1.7860    1.0000 </r>
       <r>    1.8416    1.0000 </r>
       <r>    2.7494    1.0000 </r>
       <r>    2.7494    1.0000 </r>
       <r>    4.4042    1.0000 </r>
       <r>    5.3084    0.6864 </r>
       <r>    5.3084    0.6864 </r>
       <r>    6.5090    0.0000 </r>
      </set>
      <set comment="kpoint 4">
       <r>  -29.1396    1.0000 </r>
       <r>  -14.4525    1.0000 </r>
       <r>  -13.1396    1.0000 </r>
       <r>  -13.1265    1.0000 </r>
       <r>  -11.1181    1.0000 </r>
       <r>  -11.1181    1.0000 </r>
       <r>  -10.6827    1.0000 </r>
       <r>   -0.9142    1.0000 </r>
       <r>    0.1904    1.0000 </r>
       <r>    0.1904    1.0000 </r>
       <r>    1.1267    1.0000 </r>
       <r>    1.1267    1.0000 </r>
       <r>    1.2207    1.0000 </r>
       <r>    1.5057    1.0000 </r>
       <r>    2.6380    1.0000 </r>
       <r>    2.6380    1.0000 </r>
       <r>    4.4436    1.0000 </r>
       <r>    5.8766    0.0012 </r>
       <r>    5.8766    0.0012 </r>
       <r>    6.5134    0.0000 </r>
      </set>
      <set comment="kpoint 5">
       <r>  -29.1330    1.0000 </r>
       <r>  -14.5131    1.0000 </r>
       <r>  -13.1165    1.0000 </r>
       <r>  -13.0683    1.0000 </r>
       <r>  -11.1044    1.0000 </r>
       <r>  -11.1044    1.0000 </r>
       <r>  -10.5698    1.0000 </r>
       <r>   -1.2457    1.0000 </r>
       <r>    0.1983    1.0000 </r>
       <r>    0.1983    1.0000 </r>
       <r>    0.8814    1.0000 </r>
       <r>    0.8814    1.0000 </r>
       <r>    0.8904    1.0000 </r>
       <r>    1.3394    1.0000 </r>
       <r>    2.5758    1.0000 </r>
       <r>    2.5758    1.0000 </r>
       <r>    4.4697    1.0000 </r>
       <r>    6.2093    0.0000 </r>
       <r>    6.2093    0.0000 </r>
       <r>    6.5158    0.0000 </r>
      </set>
      <set comment="kpoint 6">
       <r>  -29.1550    1.0000 </r>
       <r>  -14.3423    1.0000 </r>
       <r>  -13.2052    1.0000 </r>
       <r>  -13.1593    1.0000 </r>
       <r>  -11.1497    1.0000 </r>
       <r>  -11.1116    1.0000 </r>
       <r>  -11.0377    1.0000 </r>
       <r>   -0.0643    1.0000 </r>
       <r>    0.1390    1.0000 </r>
       <r>    0.2076    1.0000 </r>
       <r>    1.5876    1.0000 </r>
       <r>    1.8126    1.0000 </r>
       <r>    2.1811    1.0000 </r>
       <r>    2.4299    1.0000 </r>
       <r>    2.6803    1.0000 </r>
       <r>    2.7529    1.0000 </r>
       <r>    4.6564    1.0000 </r>
       <r>    4.7278    0.9998 </r>
       <r>    4.8741    0.9969 </r>
       <r>    6.7124    0.0000 </r>
      </set>
      <set comment="kpoint 7">
       <r>  -29.1464    1.0000 </r>
       <r>  -14.3500    1.0000 </r>
       <r>  -13.2353    1.0000 </r>
       <r>  -13.1415    1.0000 </r>
       <r>  -11.1314    1.0000 </r>
       <r>  -11.0846    1.0000 </r>
       <r>  -10.8749    1.0000 </r>
       <r>   -0.4548    1.0000 </r>
       <r>    0.0617    1.0000 </r>
       <r>    0.1965    1.0000 </r>
       <r>    1.0459    1.0000 </r>
       <r>    1.4350    1.0000 </r>
       <r>    1.8290    1.0000 </r>
       <r>    2.1499    1.0000 </r>
       <r>    2.5044    1.0000 </r>
       <r>    2.5512    1.0000 </r>
       <r>    4.7087    0.9999 </r>
       <r>    5.3131    0.6630 </r>
       <r>    5.3589    0.4240 </r>
       <r>    6.7866    0.0000 </r>
      </set>
      <set comment="kpoint 8">
       <r>  -29.1366    1.0000 </r>
       <r>  -14.3994    1.0000 </r>
       <r>  -13.1958    1.0000 </r>
       <r>  -13.1190    1.0000 </r>
       <r>  -11.1103    1.0000 </r>
       <r>  -11.0695    1.0000 </r>
       <r>  -10.7028    1.0000 </r>
       <r>   -0.9360    1.0000 </r>
       <r>    0.0123    1.0000 </r>
       <r>    0.1937    1.0000 </r>
       <r>    0.5323    1.0000 </r>
       <r>    1.0531    1.0000 </r>
       <r>    1.4063    1.0000 </r>
       <r>    1.9808    1.0000 </r>
       <r>    2.3729    1.0000 </r>
       <r>    2.4157    1.0000 </r>
       <r>    4.7367    0.9998 </r>
       <r>    5.8750    0.0013 </r>
       <r>    5.8788    0.0012 </r>
       <r>    6.7996    0.0000 </r>
      </set>
      <set comment="kpoint 9">
       <r>  -29.1302    1.0000 </r>
       <r>  -14.4486    1.0000 </r>
       <r>  -13.1317    1.0000 </r>
       <r>  -13.1078    1.0000 </r>
       <r>  -11.0965    1.0000 </r>
       <r>  -11.0602    1.0000 </r>
       <r>  -10.6024    1.0000 </r>
       <r>   -1.2572    1.0000 </r>
       <r>    0.0294    1.0000 </r>
       <r>    0.1856    1.0000 </r>
       <r>    0.2065    1.0000 </r>
       <r>    0.8151    1.0000 </r>
       <r>    1.2058    1.0000 </r>
       <r>    1.8618    1.0000 </r>
       <r>    2.3008    1.0000 </r>
       <r>    2.3470    1.0000 </r>
       <r>    4.7557    0.9996 </r>
       <r>    6.2048    0.0000 </r>
       <r>    6.2054    0.0000 </r>
       <r>    6.8000    0.0000 </r>
      </set>
      <set comment="kpoint 10">
       <r>  -29.1383    1.0000 </r>
       <r>  -14.2887    1.0000 </r>
       <r>  -13.3123    1.0000 </r>
       <r>  -13.1202    1.0000 </r>
       <r>  -11.1124    1.0000 </r>
       <r>  -10.9895    1.0000 </r>
       <r>  -10.8426    1.0000 </r>
       <r>   -0.6517    1.0000 </r>
       <r>   -0.2051    1.0000 </r>
       <r>    0.1945    1.0000 </r>
       <r>    0.4240    1.0000 </r>
       <r>    1.1724    1.0000 </r>
       <r>    1.7037    1.0000 </r>
       <r>    2.0470    1.0000 </r>
       <r>    2.2413    1.0000 </r>
       <r>    2.5404    1.0000 </r>
       <r>    5.2461    0.9343 </r>
       <r>    5.3807    0.3132 </r>
       <r>    5.5957   -0.0325 </r>
       <r>    7.0869    0.0000 </r>
      </set>
      <set comment="kpoint 11">
       <r>  -29.1290    1.0000 </r>
       <r>  -14.2588    1.0000 </r>
       <r>  -13.3232    1.0000 </r>
       <r>  -13.1047    1.0000 </r>
       <r>  -11.0906    1.0000 </r>
       <r>  -10.9591    1.0000 </r>
       <r>  -10.7485    1.0000 </r>
       <r>   -1.0088    1.0000 </r>
       <r>   -0.4086    1.0000 </r>
       <r>   -0.0915    1.0000 </r>
       <r>    0.2047    1.0000 </r>
       <r>    0.8659    1.0000 </r>
       <r>    1.4938    1.0000 </r>
       <r>    1.9696    1.0000 </r>
       <r>    2.0271    1.0000 </r>
       <r>    2.5835    1.0000 </r>
       <r>    5.3159    0.6487 </r>
       <r>    5.8738    0.0013 </r>
       <r>    5.9687    0.0002 </r>
       <r>    7.1892    0.0000 </r>
      </set>
      <set comment="kpoint 12">
       <r>  -29.1229    1.0000 </r>
       <r>  -14.2665    1.0000 </r>
       <r>  -13.2654    1.0000 </r>
       <r>  -13.1191    1.0000 </r>
       <r>  -11.0762    1.0000 </r>
       <r>  -10.9565    1.0000 </r>
       <r>  -10.6778    1.0000 </r>
       <r>   -1.2907    1.0000 </r>
       <r>   -0.5979    1.0000 </r>
       <r>   -0.2752    1.0000 </r>
       <r>    0.2324    1.0000 </r>
       <r>    0.6531    1.0000 </r>
       <r>    1.4054    1.0000 </r>
       <r>    1.9241    1.0000 </r>
       <r>    1.9252    1.0000 </r>
       <r>    2.5574    1.0000 </r>
       <r>    5.3276    0.5888 </r>
       <r>    6.1965    0.0000 </r>
       <r>    6.2472    0.0000 </r>
       <r>    7.2176    0.0000 </r>
      </set>
      <set comment="kpoint 13">
       <r>  -29.1203    1.0000 </r>
       <r>  -14.0972    1.0000 </r>
       <r>  -13.4193    1.0000 </r>
       <r>  -13.1237    1.0000 </r>
       <r>  -11.0679    1.0000 </r>
       <r>  -10.8643    1.0000 </r>
       <r>  -10.7769    1.0000 </r>
       <r>   -1.1810    1.0000 </r>
       <r>   -0.7129    1.0000 </r>
       <r>   -0.7120    1.0000 </r>
       <r>    0.2286    1.0000 </r>
       <r>    0.6421    1.0000 </r>
       <r>    1.5376    1.0000 </r>
       <r>    1.7181    1.0000 </r>
       <r>    1.8604    1.0000 </r>
       <r>    2.9017    1.0000 </r>
       <r>    5.8213    0.0029 </r>
       <r>    5.9093    0.0006 </r>
       <r>    6.1848    0.0000 </r>
       <r>    7.3729    0.0000 </r>
      </set>
      <set comment="kpoint 14">
       <r>  -29.1146    1.0000 </r>
       <r>  -14.0059    1.0000 </r>
       <r>  -13.4063    1.0000 </r>
       <r>  -13.1904    1.0000 </r>
       <r>  -11.0529    1.0000 </r>
       <r>  -10.8500    1.0000 </r>
       <r>  -10.7473    1.0000 </r>
       <r>   -1.3694    1.0000 </r>
       <r>   -1.1001    1.0000 </r>
       <r>   -0.8029    1.0000 </r>
       <r>    0.2679    1.0000 </r>
       <r>    0.4749    1.0000 </r>
       <r>    1.5592    1.0000 </r>
       <r>    1.6077    1.0000 </r>
       <r>    1.8074    1.0000 </r>
       <r>    3.0207    1.0000 </r>
       <r>    5.8644    0.0015 </r>
       <r>    6.1893    0.0000 </r>
       <r>    6.3843    0.0000 </r>
       <r>    7.4353    0.0000 </r>
      </set>
      <set comment="kpoint 15">
       <r>  -29.1092    1.0000 </r>
       <r>  -13.7467    1.0000 </r>
       <r>  -13.4817    1.0000 </r>
       <r>  -13.3425    1.0000 </r>
       <r>  -11.0376    1.0000 </r>
       <r>  -10.7877    1.0000 </r>
       <r>  -10.7773    1.0000 </r>
       <r>   -1.5074    1.0000 </r>
       <r>   -1.3853    1.0000 </r>
       <r>   -1.0575    1.0000 </r>
       <r>    0.3031    1.0000 </r>
       <r>    0.3562    1.0000 </r>
       <r>    1.3527    1.0000 </r>
       <r>    1.7453    1.0000 </r>
       <r>    1.7993    1.0000 </r>
       <r>    3.2277    1.0000 </r>
       <r>    6.1780    0.0000 </r>
       <r>    6.1908    0.0000 </r>
       <r>    6.5290    0.0000 </r>
       <r>    7.5132    0.0000 </r>
      </set>
      <set comment="kpoint 16">
       <r>  -29.1517    1.0000 </r>
       <r>  -14.3291    1.0000 </r>
       <r>  -13.1940    1.0000 </r>
       <r>  -13.1940    1.0000 </r>
       <r>  -11.1152    1.0000 </r>
       <r>  -11.1152    1.0000 </r>
       <r>  -10.9911    1.0000 </r>
       <r>   -0.1740    1.0000 </r>
       <r>    0.1359    1.0000 </r>
       <r>    0.1359    1.0000 </r>
       <r>    1.4834    1.0000 </r>
       <r>    1.4834    1.0000 </r>
       <r>    2.1362    1.0000 </r>
       <r>    2.3015    1.0000 </r>
       <r>    2.6266    1.0000 </r>
       <r>    2.6266    1.0000 </r>
       <r>    4.8247    0.9985 </r>
       <r>    4.9151    0.9955 </r>
       <r>    4.9151    0.9955 </r>
       <r>    7.1420    0.0000 </r>
      </set>
      <set comment="kpoint 17">
       <r>  -29.1432    1.0000 </r>
       <r>  -14.3173    1.0000 </r>
       <r>  -13.2381    1.0000 </r>
       <r>  -13.1658    1.0000 </r>
       <r>  -11.1250    1.0000 </r>
       <r>  -11.0613    1.0000 </r>
       <r>  -10.8586    1.0000 </r>
       <r>   -0.5162    1.0000 </r>
       <r>    0.0048    1.0000 </r>
       <r>    0.1317    1.0000 </r>
       <r>    1.0070    1.0000 </r>
       <r>    1.0504    1.0000 </r>
       <r>    1.7739    1.0000 </r>
       <r>    2.2709    1.0000 </r>
       <r>    2.3699    1.0000 </r>
       <r>    2.4997    1.0000 </r>
       <r>    4.9036    0.9958 </r>
       <r>    5.3627    0.4046 </r>
       <r>    5.3830    0.3021 </r>
       <r>    7.1416    0.0000 </r>
      </set>
      <set comment="kpoint 18">
       <r>  -29.1336    1.0000 </r>
       <r>  -14.3457    1.0000 </r>
       <r>  -13.2147    1.0000 </r>
       <r>  -13.1315    1.0000 </r>
       <r>  -11.1371    1.0000 </r>
       <r>  -11.0140    1.0000 </r>
       <r>  -10.7189    1.0000 </r>
       <r>   -0.9581    1.0000 </r>
       <r>   -0.0982    1.0000 </r>
       <r>    0.1398    1.0000 </r>
       <r>    0.4884    1.0000 </r>
       <r>    0.6218    1.0000 </r>
       <r>    1.6694    1.0000 </r>
       <r>    2.0986    1.0000 </r>
       <r>    2.1230    1.0000 </r>
       <r>    2.3871    1.0000 </r>
       <r>    4.9385    0.9951 </r>
       <r>    5.8789    0.0012 </r>
       <r>    5.8948    0.0009 </r>
       <r>    7.1361    0.0000 </r>
      </set>
      <set comment="kpoint 19">
       <r>  -29.1274    1.0000 </r>
       <r>  -14.3841    1.0000 </r>
       <r>  -13.1638    1.0000 </r>
       <r>  -13.1099    1.0000 </r>
       <r>  -11.1456    1.0000 </r>
       <r>  -10.9844    1.0000 </r>
       <r>  -10.6376    1.0000 </r>
       <r>   -1.2673    1.0000 </r>
       <r>   -0.1021    1.0000 </r>
       <r>    0.1071    1.0000 </r>
       <r>    0.1696    1.0000 </r>
       <r>    0.3880    1.0000 </r>
       <r>    1.6986    1.0000 </r>
       <r>    1.9275    1.0000 </r>
       <r>    1.9606    1.0000 </r>
       <r>    2.3275    1.0000 </r>
       <r>    4.9598    0.9954 </r>
       <r>    6.1972    0.0000 </r>
       <r>    6.2214    0.0000 </r>
       <r>    7.1274    0.0000 </r>
      </set>
      <set comment="kpoint 20">
       <r>  -29.1352    1.0000 </r>
       <r>  -14.2481    1.0000 </r>
       <r>  -13.2886    1.0000 </r>
       <r>  -13.1524    1.0000 </r>
       <r>  -11.1179    1.0000 </r>
       <r>  -11.0177    1.0000 </r>
       <r>  -10.8057    1.0000 </r>
       <r>   -0.7140    1.0000 </r>
       <r>   -0.2013    1.0000 </r>
       <r>    0.0772    1.0000 </r>
       <r>    0.4515    1.0000 </r>
       <r>    0.8883    1.0000 </r>
       <r>    1.3584    1.0000 </r>
       <r>    2.2648    1.0000 </r>
       <r>    2.2814    1.0000 </r>
       <r>    2.5354    1.0000 </r>
       <r>    5.3300    0.5763 </r>
       <r>    5.4543    0.0354 </r>
       <r>    5.6182   -0.0218 </r>
       <r>    7.5331    0.0000 </r>
      </set>
      <set comment="kpoint 21">
       <r>  -29.1261    1.0000 </r>
       <r>  -14.2048    1.0000 </r>
       <r>  -13.3036    1.0000 </r>
       <r>  -13.1195    1.0000 </r>
       <r>  -11.1373    1.0000 </r>
       <r>  -10.9560    1.0000 </r>
       <r>  -10.7481    1.0000 </r>
       <r>   -1.0306    1.0000 </r>
       <r>   -0.4268    1.0000 </r>
       <r>   -0.0665    1.0000 </r>
       <r>    0.0927    1.0000 </r>
       <r>    0.5541    1.0000 </r>
       <r>    1.2923    1.0000 </r>
       <r>    2.0504    1.0000 </r>
       <r>    2.2014    1.0000 </r>
       <r>    2.5880    1.0000 </r>
       <r>    5.4143    0.1636 </r>
       <r>    5.9055    0.0007 </r>
       <r>    5.9900    0.0001 </r>
       <r>    7.6188    0.0000 </r>
      </set>
      <set comment="kpoint 22">
       <r>  -29.1201    1.0000 </r>
       <r>  -14.2026    1.0000 </r>
       <r>  -13.2642    1.0000 </r>
       <r>  -13.1087    1.0000 </r>
       <r>  -11.1587    1.0000 </r>
       <r>  -10.9065    1.0000 </r>
       <r>  -10.7191    1.0000 </r>
       <r>   -1.2964    1.0000 </r>
       <r>   -0.5899    1.0000 </r>
       <r>   -0.2712    1.0000 </r>
       <r>    0.1244    1.0000 </r>
       <r>    0.2993    1.0000 </r>
       <r>    1.3635    1.0000 </r>
       <r>    1.8799    1.0000 </r>
       <r>    2.1501    1.0000 </r>
       <r>    2.5644    1.0000 </r>
       <r>    5.4364    0.0853 </r>
       <r>    6.2162    0.0000 </r>
       <r>    6.2681    0.0000 </r>
       <r>    7.6312    0.0000 </r>
      </set>
      <set comment="kpoint 23">
       <r>  -29.1175    1.0000 </r>
       <r>  -14.0412    1.0000 </r>
       <r>  -13.3830    1.0000 </r>
       <r>  -13.1211    1.0000 </r>
       <r>  -11.1275    1.0000 </r>
       <r>  -10.9170    1.0000 </r>
       <r>  -10.7672    1.0000 </r>
       <r>   -1.1840    1.0000 </r>
       <r>   -0.7081    1.0000 </r>
       <r>   -0.6620    1.0000 </r>
       <r>    0.0744    1.0000 </r>
       <r>    0.4280    1.0000 </r>
       <r>    1.0906    1.0000 </r>
       <r>    1.9808    1.0000 </r>
       <r>    2.1091    1.0000 </r>
       <r>    2.9057    1.0000 </r>
       <r>    5.8746    0.0013 </r>
       <r>    5.9619    0.0002 </r>
       <r>    6.2087    0.0000 </r>
       <r>    7.8250    0.0000 </r>
      </set>
      <set comment="kpoint 24">
       <r>  -29.1119    1.0000 </r>
       <r>  -13.9446    1.0000 </r>
       <r>  -13.3770    1.0000 </r>
       <r>  -13.1644    1.0000 </r>
       <r>  -11.1310    1.0000 </r>
       <r>  -10.8686    1.0000 </r>
       <r>  -10.7917    1.0000 </r>
       <r>   -1.3673    1.0000 </r>
       <r>   -1.0296    1.0000 </r>
       <r>   -0.7961    1.0000 </r>
       <r>    0.1168    1.0000 </r>
       <r>    0.2527    1.0000 </r>
       <r>    1.0727    1.0000 </r>
       <r>    1.9483    1.0000 </r>
       <r>    2.0605    1.0000 </r>
       <r>    3.0268    1.0000 </r>
       <r>    5.9287    0.0004 </r>
       <r>    6.2309    0.0000 </r>
       <r>    6.4075    0.0000 </r>
       <r>    7.8816    0.0000 </r>
      </set>
      <set comment="kpoint 25">
       <r>  -29.1065    1.0000 </r>
       <r>  -13.6878    1.0000 </r>
       <r>  -13.4394    1.0000 </r>
       <r>  -13.3024    1.0000 </r>
       <r>  -11.0993    1.0000 </r>
       <r>  -10.8553    1.0000 </r>
       <r>  -10.8304    1.0000 </r>
       <r>   -1.5027    1.0000 </r>
       <r>   -1.2812    1.0000 </r>
       <r>   -1.0549    1.0000 </r>
       <r>    0.1384    1.0000 </r>
       <r>    0.1885    1.0000 </r>
       <r>    0.9387    1.0000 </r>
       <r>    2.0125    1.0000 </r>
       <r>    2.0496    1.0000 </r>
       <r>    3.2386    1.0000 </r>
       <r>    6.2306    0.0000 </r>
       <r>    6.2437    0.0000 </r>
       <r>    6.5533    0.0000 </r>
       <r>    7.9582    0.0000 </r>
      </set>
      <set comment="kpoint 26">
       <r>  -29.1276    1.0000 </r>
       <r>  -14.1521    1.0000 </r>
       <r>  -13.2236    1.0000 </r>
       <r>  -13.2236    1.0000 </r>
       <r>  -11.0922    1.0000 </r>
       <r>  -11.0922    1.0000 </r>
       <r>  -10.7546    1.0000 </r>
       <r>   -0.8709    1.0000 </r>
       <r>   -0.1918    1.0000 </r>
       <r>   -0.1918    1.0000 </r>
       <r>    0.4591    1.0000 </r>
       <r>    0.4591    1.0000 </r>
       <r>    0.6703    1.0000 </r>
       <r>    2.3708    1.0000 </r>
       <r>    2.3708    1.0000 </r>
       <r>    2.6392    1.0000 </r>
       <r>    5.5960   -0.0323 </r>
       <r>    5.6968    0.0019 </r>
       <r>    5.6968    0.0019 </r>
       <r>    8.4315    0.0000 </r>
      </set>
      <set comment="kpoint 27">
       <r>  -29.1188    1.0000 </r>
       <r>  -14.0632    1.0000 </r>
       <r>  -13.2716    1.0000 </r>
       <r>  -13.1445    1.0000 </r>
       <r>  -11.1837    1.0000 </r>
       <r>  -11.0133    1.0000 </r>
       <r>  -10.7521    1.0000 </r>
       <r>   -1.0887    1.0000 </r>
       <r>   -0.5039    1.0000 </r>
       <r>   -0.1760    1.0000 </r>
       <r>   -0.0266    1.0000 </r>
       <r>    0.1276    1.0000 </r>
       <r>    0.6340    1.0000 </r>
       <r>    2.3250    1.0000 </r>
       <r>    2.4079    1.0000 </r>
       <r>    2.7017    1.0000 </r>
       <r>    5.7085    0.0033 </r>
       <r>    6.0247    0.0000 </r>
       <r>    6.0541    0.0000 </r>
       <r>    8.4147    0.0000 </r>
      </set>
      <set comment="kpoint 28">
       <r>  -29.1131    1.0000 </r>
       <r>  -14.0269    1.0000 </r>
       <r>  -13.2742    1.0000 </r>
       <r>  -13.0878    1.0000 </r>
       <r>  -11.2482    1.0000 </r>
       <r>  -10.9102    1.0000 </r>
       <r>  -10.8054    1.0000 </r>
       <r>   -1.3157    1.0000 </r>
       <r>   -0.6574    1.0000 </r>
       <r>   -0.3163    1.0000 </r>
       <r>   -0.1455    1.0000 </r>
       <r>   -0.0641    1.0000 </r>
       <r>    0.6989    1.0000 </r>
       <r>    2.2954    1.0000 </r>
       <r>    2.3953    1.0000 </r>
       <r>    2.6816    1.0000 </r>
       <r>    5.7450    0.0049 </r>
       <r>    6.2886    0.0000 </r>
       <r>    6.3252    0.0000 </r>
       <r>    8.3985    0.0000 </r>
      </set>
      <set comment="kpoint 29">
       <r>  -29.1105    1.0000 </r>
       <r>  -13.8922    1.0000 </r>
       <r>  -13.2858    1.0000 </r>
       <r>  -13.1253    1.0000 </r>
       <r>  -11.2152    1.0000 </r>
       <r>  -11.0577    1.0000 </r>
       <r>  -10.7978    1.0000 </r>
       <r>   -1.1912    1.0000 </r>
       <r>   -0.6983    1.0000 </r>
       <r>   -0.5470    1.0000 </r>
       <r>   -0.2337    1.0000 </r>
       <r>    0.0740    1.0000 </r>
       <r>    0.2798    1.0000 </r>
       <r>    2.3890    1.0000 </r>
       <r>    2.5094    1.0000 </r>
       <r>    2.9388    1.0000 </r>
       <r>    6.0580    0.0000 </r>
       <r>    6.1191    0.0000 </r>
       <r>    6.2712    0.0000 </r>
       <r>    8.7805    0.0000 </r>
      </set>
      <set comment="kpoint 30">
       <r>  -29.1051    1.0000 </r>
       <r>  -13.7774    1.0000 </r>
       <r>  -13.3006    1.0000 </r>
       <r>  -13.1039    1.0000 </r>
       <r>  -11.2697    1.0000 </r>
       <r>  -10.9940    1.0000 </r>
       <r>  -10.8867    1.0000 </r>
       <r>   -1.3688    1.0000 </r>
       <r>   -0.8701    1.0000 </r>
       <r>   -0.7653    1.0000 </r>
       <r>   -0.2182    1.0000 </r>
       <r>   -0.1030    1.0000 </r>
       <r>    0.2908    1.0000 </r>
       <r>    2.4298    1.0000 </r>
       <r>    2.5171    1.0000 </r>
       <r>    3.0528    1.0000 </r>
       <r>    6.1226    0.0000 </r>
       <r>    6.3537    0.0000 </r>
       <r>    6.4689    0.0000 </r>
       <r>    8.8303    0.0000 </r>
      </set>
      <set comment="kpoint 31">
       <r>  -29.0998    1.0000 </r>
       <r>  -13.5308    1.0000 </r>
       <r>  -13.3235    1.0000 </r>
       <r>  -13.1989    1.0000 </r>
       <r>  -11.2425    1.0000 </r>
       <r>  -11.0358    1.0000 </r>
       <r>  -10.9807    1.0000 </r>
       <r>   -1.5038    1.0000 </r>
       <r>   -1.0497    1.0000 </r>
       <r>   -1.0154    1.0000 </r>
       <r>   -0.1737    1.0000 </r>
       <r>   -0.1058    1.0000 </r>
       <r>    0.1134    1.0000 </r>
       <r>    2.5191    1.0000 </r>
       <r>    2.5502    1.0000 </r>
       <r>    3.2637    1.0000 </r>
       <r>    6.3799    0.0000 </r>
       <r>    6.3898    0.0000 </r>
       <r>    6.6169    0.0000 </r>
       <r>    8.9287    0.0000 </r>
      </set>
      <set comment="kpoint 32">
       <r>  -29.1025    1.0000 </r>
       <r>  -13.7005    1.0000 </r>
       <r>  -13.1588    1.0000 </r>
       <r>  -13.1588    1.0000 </r>
       <r>  -11.2337    1.0000 </r>
       <r>  -11.2337    1.0000 </r>
       <r>  -10.8977    1.0000 </r>
       <r>   -1.2349    1.0000 </r>
       <r>   -0.6849    1.0000 </r>
       <r>   -0.6849    1.0000 </r>
       <r>   -0.4660    1.0000 </r>
       <r>   -0.2026    1.0000 </r>
       <r>   -0.2026    1.0000 </r>
       <r>    2.7309    1.0000 </r>
       <r>    2.7309    1.0000 </r>
       <r>    3.0440    1.0000 </r>
       <r>    6.3084    0.0000 </r>
       <r>    6.3554    0.0000 </r>
       <r>    6.3554    0.0000 </r>
       <r>    9.6894    0.0000 </r>
      </set>
      <set comment="kpoint 33">
       <r>  -29.0973    1.0000 </r>
       <r>  -13.5465    1.0000 </r>
       <r>  -13.2125    1.0000 </r>
       <r>  -13.0614    1.0000 </r>
       <r>  -11.3619    1.0000 </r>
       <r>  -11.1690    1.0000 </r>
       <r>  -11.0298    1.0000 </r>
       <r>   -1.4114    1.0000 </r>
       <r>   -0.8357    1.0000 </r>
       <r>   -0.6775    1.0000 </r>
       <r>   -0.6709    1.0000 </r>
       <r>   -0.3502    1.0000 </r>
       <r>   -0.1656    1.0000 </r>
       <r>    2.7943    1.0000 </r>
       <r>    2.9067    1.0000 </r>
       <r>    3.1404    1.0000 </r>
       <r>    6.3861    0.0000 </r>
       <r>    6.5261    0.0000 </r>
       <r>    6.5513    0.0000 </r>
       <r>    9.6658    0.0000 </r>
      </set>
      <set comment="kpoint 34">
       <r>  -29.0922    1.0000 </r>
       <r>  -13.3254    1.0000 </r>
       <r>  -13.1674    1.0000 </r>
       <r>  -13.0844    1.0000 </r>
       <r>  -11.3809    1.0000 </r>
       <r>  -11.2641    1.0000 </r>
       <r>  -11.1836    1.0000 </r>
       <r>   -1.5524    1.0000 </r>
       <r>   -1.0429    1.0000 </r>
       <r>   -0.7263    1.0000 </r>
       <r>   -0.6961    1.0000 </r>
       <r>   -0.3458    1.0000 </r>
       <r>   -0.3400    1.0000 </r>
       <r>    2.9931    1.0000 </r>
       <r>    3.0166    1.0000 </r>
       <r>    3.2964    1.0000 </r>
       <r>    6.5824    0.0000 </r>
       <r>    6.5892    0.0000 </r>
       <r>    6.6930    0.0000 </r>
       <r>    9.8848    0.0000 </r>
      </set>
      <set comment="kpoint 35">
       <r>  -29.0872    1.0000 </r>
       <r>  -13.1409    1.0000 </r>
       <r>  -13.0433    1.0000 </r>
       <r>  -13.0433    1.0000 </r>
       <r>  -11.4344    1.0000 </r>
       <r>  -11.4344    1.0000 </r>
       <r>  -11.3597    1.0000 </r>
       <r>   -1.6837    1.0000 </r>
       <r>   -1.0387    1.0000 </r>
       <r>   -1.0387    1.0000 </r>
       <r>   -0.5372    1.0000 </r>
       <r>   -0.4638    1.0000 </r>
       <r>   -0.4638    1.0000 </r>
       <r>    3.2749    1.0000 </r>
       <r>    3.2749    1.0000 </r>
       <r>    3.3314    1.0000 </r>
       <r>    6.7400    0.0000 </r>
       <r>    6.7470    0.0000 </r>
       <r>    6.7470    0.0000 </r>
       <r>   10.4922    0.0000 </r>
      </set>
     </set>
    </set>
   </array>
  </eigenvalues>
  <separator name="orbital magnetization" >
   <v name="MAGDIPOLOUT">      0.00000000      0.00000000      0.00000000</v>
  </separator>
  <dos>
   <i name="efermi">      5.34449999 </i>
   <total>
    <array>
     <dimension dim="1">gridpoints</dimension>
     <dimension dim="2">spin</dimension>
     <field>energy</field>
     <field>total</field>
     <field>integrated</field>
     <set>
      <set comment="spin 1">
       <r>     6.0000  3480.7054    34.8071 </r>
       <r>     6.0100     4.0868    34.8479 </r>
       <r>     6.0200     3.9871    34.8878 </r>
       <r>     6.0300     3.9126    34.9269 </r>
       <r>     6.0400     3.8686    34.9656 </r>
       <r>     6.0500     3.8596    35.0042 </r>
       <r>     6.0600     3.8887    35.0431 </r>
       <r>     6.0700     3.9578    35.0827 </r>
       <r>     6.0800     4.0674    35.1233 </r>
       <r>     6.0900     4.2166    35.1655 </r>
       <r>     6.1000     4.4029    35.2095 </r>
       <r>     6.1100     4.6227    35.2558 </r>
       <r>     6.1200     4.8712    35.3045 </r>
       <r>     6.1300     5.1422    35.3559 </r>
       <r>     6.1400     5.4292    35.4102 </r>
       <r>     6.1500     5.7247    35.4674 </r>
       <r>     6.1600     6.0210    35.5276 </r>
       <r>     6.1700     6.3105    35.5907 </r>
       <r>     6.1800     6.5856    35.6566 </r>
       <r>     6.1900     6.8393    35.7250 </r>
       <r>     6.2000     7.0651    35.7956 </r>
       <r>     6.2100     7.2576    35.8682 </r>
       <r>     6.2200     7.4123    35.9423 </r>
       <r>     6.2300     7.5259    36.0176 </r>
       <r>     6.2400     7.5964    36.0936 </r>
       <r>     6.2500     7.6229    36.1698 </r>
       <r>     6.2600     7.6058    36.2459 </r>
       <r>     6.2700     7.5467    36.3213 </r>
       <r>     6.2800     7.4481    36.3958 </r>
       <r>     6.2900     7.3136    36.4689 </r>
       <r>     6.3000     7.1472    36.5404 </r>
       <r>     6.3100     6.9537    36.6099 </r>
       <r>     6.3200     6.7382    36.6773 </r>
       <r>     6.3300     6.5059    36.7424 </r>
       <r>     6.3400     6.2620    36.8050 </r>
       <r>     6.3500     6.0116    36.8651 </r>
       <r>     6.3600     5.7593    36.9227 </r>
       <r>     6.3700     5.5094    36.9778 </r>
       <r>     6.3800     5.2655    37.0305 </r>
       <r>     6.3900     5.0308    37.0808 </r>
       <r>     6.4000     4.8077    37.1289 </r>
       <r>     6.4100     4.5978    37.1748 </r>
       <r>     6.4200     4.4024    37.2189 </r>
       <r>     6.4300     4.2220    37.2611 </r>
       <r>     6.4400     4.0564    37.3016 </r>
       <r>     6.4500     3.9054    37.3407 </r>
       <r>     6.4600     3.7678    37.3784 </r>
       <r>     6.4700     3.6426    37.4148 </r>
       <r>     6.4800     3.5282    37.4501 </r>
       <r>     6.4900     3.4233    37.4843 </r>
       <r>     6.5000     3.3263    37.5176 </r>
       <r>     6.5100     3.2355    37.5499 </r>
       <r>     6.5200     3.1497    37.5814 </r>
       <r>     6.5300     3.0676    37.6121 </r>
       <r>     6.5400     2.9883    37.6420 </r>
       <r>     6.5500     2.9108    37.6711 </r>
       <r>     6.5600     2.8347    37.6994 </r>
       <r>     6.5700     2.7598    37.7270 </r>
       <r>     6.5800     2.6860    37.7539 </r>
       <r>     6.5900     2.6133    37.7800 </r>
       <r>     6.6000     2.5422    37.8055 </r>
       <r>     6.6100     2.4730    37.8302 </r>
       <r>     6.6200     2.4062    37.8542 </r>
       <r>     6.6300     2.3422    37.8777 </r>
       <r>     6.6400     2.2815    37.9005 </r>
       <r>     6.6500     2.2242    37.9227 </r>
       <r>     6.6600     2.1704    37.9444 </r>
       <r>     6.6700     2.1202    37.9656 </r>
       <r>     6.6800     2.0731    37.9864 </r>
       <r>     6.6900     2.0286    38.0066 </r>
       <r>     6.7000     1.9860    38.0265 </r>
       <r>     6.7100     1.9444    38.0460 </r>
       <r>     6.7200     1.9026    38.0650 </r>
       <r>     6.7300     1.8595    38.0836 </r>
       <r>     6.7400     1.8138    38.1017 </r>
       <r>     6.7500     1.7643    38.1194 </r>
       <r>     6.7600     1.7098    38.1365 </r>
       <r>     6.7700     1.6493    38.1529 </r>
       <r>     6.7800     1.5821    38.1688 </r>
       <r>     6.7900     1.5076    38.1838 </r>
       <r>     6.8000     1.4255    38.1981 </r>
       <r>     6.8100     1.3362    38.2115 </r>
       <r>     6.8200     1.2400    38.2239 </r>
       <r>     6.8300     1.1379    38.2352 </r>
       <r>     6.8400     1.0311    38.2455 </r>
       <r>     6.8500     0.9211    38.2548 </r>
       <r>     6.8600     0.8100    38.2629 </r>
       <r>     6.8700     0.6997    38.2699 </r>
       <r>     6.8800     0.5925    38.2758 </r>
       <r>     6.8900     0.4909    38.2807 </r>
       <r>     6.9000     0.3972    38.2847 </r>
       <r>     6.9100     0.3138    38.2878 </r>
       <r>     6.9200     0.2429    38.2902 </r>
       <r>     6.9300     0.1865    38.2921 </r>
       <r>     6.9400     0.1463    38.2936 </r>
       <r>     6.9500     0.1236    38.2948 </r>
       <r>     6.9600     0.1194    38.2960 </r>
       <r>     6.9700     0.1341    38.2973 </r>
       <r>     6.9800     0.1679    38.2990 </r>
       <r>     6.9900     0.2202    38.3012 </r>
       <r>     7.0000     0.2900    38.3041 </r>
       <r>     7.0100     0.3760    38.3079 </r>
       <r>     7.0200     0.4762    38.3126 </r>
       <r>     7.0300     0.5883    38.3185 </r>
       <r>     7.0400     0.7098    38.3256 </r>
       <r>     7.0500     0.8377    38.3340 </r>
       <r>     7.0600     0.9689    38.3437 </r>
       <r>     7.0700     1.1002    38.3547 </r>
       <r>     7.0800     1.2283    38.3670 </r>
       <r>     7.0900     1.3501    38.3805 </r>
       <r>     7.1000     1.4626    38.3951 </r>
       <r>     7.1100     1.5630    38.4107 </r>
       <r>     7.1200     1.6490    38.4272 </r>
       <r>     7.1300     1.7184    38.4444 </r>
       <r>     7.1400     1.7698    38.4621 </r>
       <r>     7.1500     1.8021    38.4801 </r>
       <r>     7.1600     1.8147    38.4983 </r>
       <r>     7.1700     1.8078    38.5163 </r>
       <r>     7.1800     1.7818    38.5342 </r>
       <r>     7.1900     1.7377    38.5515 </r>
       <r>     7.2000     1.6772    38.5683 </r>
       <r>     7.2100     1.6021    38.5843 </r>
       <r>     7.2200     1.5146    38.5995 </r>
       <r>     7.2300     1.4172    38.6136 </r>
       <r>     7.2400     1.3127    38.6268 </r>
       <r>     7.2500     1.2037    38.6388 </r>
       <r>     7.2600     1.0930    38.6497 </r>
       <r>     7.2700     0.9834    38.6596 </r>
       <r>     7.2800     0.8773    38.6683 </r>
       <r>     7.2900     0.7771    38.6761 </r>
       <r>     7.3000     0.6848    38.6830 </r>
       <r>     7.3100     0.6024    38.6890 </r>
       <r>     7.3200     0.5311    38.6943 </r>
       <r>     7.3300     0.4723    38.6990 </r>
       <r>     7.3400     0.4266    38.7033 </r>
       <r>     7.3500     0.3946    38.7072 </r>
       <r>     7.3600     0.3764    38.7110 </r>
       <r>     7.3700     0.3720    38.7147 </r>
       <r>     7.3800     0.3810    38.7185 </r>
       <r>     7.3900     0.4029    38.7226 </r>
       <r>     7.4000     0.4369    38.7269 </r>
       <r>     7.4100     0.4821    38.7317 </r>
       <r>     7.4200     0.5375    38.7371 </r>
       <r>     7.4300     0.6018    38.7431 </r>
       <r>     7.4400     0.6739    38.7499 </r>
       <r>     7.4500     0.7523    38.7574 </r>
       <r>     7.4600     0.8356    38.7658 </r>
       <r>     7.4700     0.9224    38.7750 </r>
       <r>     7.4800     1.0110    38.7851 </r>
       <r>     7.4900     1.1000    38.7961 </r>
       <r>     7.5000     1.1875    38.8080 </r>
       <r>     7.5100     1.2721    38.8207 </r>
       <r>     7.5200     1.3521    38.8342 </r>
       <r>     7.5300     1.4258    38.8485 </r>
       <r>     7.5400     1.4919    38.8634 </r>
       <r>     7.5500     1.5489    38.8789 </r>
       <r>     7.5600     1.5955    38.8948 </r>
       <r>     7.5700     1.6309    38.9111 </r>
       <r>     7.5800     1.6542    38.9277 </r>
       <r>     7.5900     1.6649    38.9443 </r>
       <r>     7.6000     1.6629    38.9610 </r>
       <r>     7.6100     1.6484    38.9774 </r>
       <r>     7.6200     1.6218    38.9937 </r>
       <r>     7.6300     1.5841    39.0095 </r>
       <r>     7.6400     1.5365    39.0249 </r>
       <r>     7.6500     1.4805    39.0397 </r>
       <r>     7.6600     1.4179    39.0538 </r>
       <r>     7.6700     1.3507    39.0674 </r>
       <r>     7.6800     1.2811    39.0802 </r>
       <r>     7.6900     1.2111    39.0923 </r>
       <r>     7.7000     1.1431    39.1037 </r>
       <r>     7.7100     1.0789    39.1145 </r>
       <r>     7.7200     1.0206    39.1247 </r>
       <r>     7.7300     0.9698    39.1344 </r>
       <r>     7.7400     0.9276    39.1437 </r>
       <r>     7.7500     0.8952    39.1526 </r>
       <r>     7.7600     0.8728    39.1614 </r>
       <r>     7.7700     0.8608    39.1700 </r>
       <r>     7.7800     0.8587    39.1785 </r>
       <r>     7.7900     0.8658    39.1872 </r>
       <r>     7.8000     0.8810    39.1960 </r>
       <r>     7.8100     0.9028    39.2050 </r>
       <r>     7.8200     0.9297    39.2143 </r>
       <r>     7.8300     0.9596    39.2239 </r>
       <r>     7.8400     0.9908    39.2338 </r>
       <r>     7.8500     1.0211    39.2441 </r>
       <r>     7.8600     1.0488    39.2545 </r>
       <r>     7.8700     1.0719    39.2653 </r>
       <r>     7.8800     1.0889    39.2762 </r>
       <r>     7.8900     1.0985    39.2871 </r>
       <r>     7.9000     1.0997    39.2981 </r>
       <r>     7.9100     1.0916    39.3091 </r>
       <r>     7.9200     1.0739    39.3198 </r>
       <r>     7.9300     1.0466    39.3303 </r>
       <r>     7.9400     1.0100    39.3404 </r>
       <r>     7.9500     0.9645    39.3500 </r>
       <r>     7.9600     0.9111    39.3591 </r>
       <r>     7.9700     0.8507    39.3676 </r>
       <r>     7.9800     0.7846    39.3755 </r>
       <r>     7.9900     0.7140    39.3826 </r>
       <r>     8.0000     0.6403    39.3890 </r>
       <r>     8.0100     0.5649    39.3947 </r>
       <r>     8.0200     0.4891    39.3995 </r>
       <r>     8.0300     0.4141    39.4037 </r>
       <r>     8.0400     0.3411    39.4071 </r>
       <r>     8.0500     0.2712    39.4098 </r>
       <r>     8.0600     0.2051    39.4119 </r>
       <r>     8.0700     0.1436    39.4133 </r>
       <r>     8.0800     0.0874    39.4142 </r>
       <r>     8.0900     0.0367    39.4145 </r>
       <r>     8.1000    -0.0081    39.4145 </r>
       <r>     8.1100    -0.0467    39.4140 </r>
       <r>     8.1200    -0.0791    39.4132 </r>
       <r>     8.1300    -0.1052    39.4121 </r>
       <r>     8.1400    -0.1250    39.4109 </r>
       <r>     8.1500    -0.1386    39.4095 </r>
       <r>     8.1600    -0.1460    39.4081 </r>
       <r>     8.1700    -0.1472    39.4066 </r>
       <r>     8.1800    -0.1423    39.4052 </r>
       <r>     8.1900    -0.1313    39.4038 </r>
       <r>     8.2000    -0.1143    39.4027 </r>
       <r>     8.2100    -0.0914    39.4018 </r>
       <r>     8.2200    -0.0626    39.4012 </r>
       <r>     8.2300    -0.0281    39.4009 </r>
       <r>     8.2400     0.0118    39.4010 </r>
       <r>     8.2500     0.0569    39.4016 </r>
       <r>     8.2600     0.1067    39.4026 </r>
       <r>     8.2700     0.1607    39.4042 </r>
       <r>     8.2800     0.2182    39.4064 </r>
       <r>     8.2900     0.2784    39.4092 </r>
       <r>     8.3000     0.3405    39.4126 </r>
       <r>     8.3100     0.4033    39.4166 </r>
       <r>     8.3200     0.4657    39.4213 </r>
       <r>     8.3300     0.5265    39.4266 </r>
       <r>     8.3400     0.5844    39.4324 </r>
       <r>     8.3500     0.6382    39.4388 </r>
       <r>     8.3600     0.6867    39.4457 </r>
       <r>     8.3700     0.7285    39.4529 </r>
       <r>     8.3800     0.7628    39.4606 </r>
       <r>     8.3900     0.7886    39.4685 </r>
       <r>     8.4000     0.8051    39.4765 </r>
       <r>     8.4100     0.8119    39.4846 </r>
       <r>     8.4200     0.8086    39.4927 </r>
       <r>     8.4300     0.7953    39.5007 </r>
       <r>     8.4400     0.7721    39.5084 </r>
       <r>     8.4500     0.7396    39.5158 </r>
       <r>     8.4600     0.6985    39.5228 </r>
       <r>     8.4700     0.6497    39.5293 </r>
       <r>     8.4800     0.5944    39.5352 </r>
       <r>     8.4900     0.5339    39.5406 </r>
       <r>     8.5000     0.4697    39.5452 </r>
       <r>     8.5100     0.4033    39.5493 </r>
       <r>     8.5200     0.3363    39.5526 </r>
       <r>     8.5300     0.2703    39.5553 </r>
       <r>     8.5400     0.2069    39.5574 </r>
       <r>     8.5500     0.1476    39.5589 </r>
       <r>     8.5600     0.0939    39.5598 </r>
       <r>     8.5700     0.0470    39.5603 </r>
       <r>     8.5800     0.0083    39.5604 </r>
       <r>     8.5900    -0.0215    39.5602 </r>
       <r>     8.6000    -0.0414    39.5598 </r>
       <r>     8.6100    -0.0508    39.5592 </r>
       <r>     8.6200    -0.0495    39.5588 </r>
       <r>     8.6300    -0.0371    39.5584 </r>
       <r>     8.6400    -0.0138    39.5582 </r>
       <r>     8.6500     0.0202    39.5584 </r>
       <r>     8.6600     0.0644    39.5591 </r>
       <r>     8.6700     0.1181    39.5603 </r>
       <r>     8.6800     0.1803    39.5621 </r>
       <r>     8.6900     0.2500    39.5646 </r>
       <r>     8.7000     0.3259    39.5678 </r>
       <r>     8.7100     0.4067    39.5719 </r>
       <r>     8.7200     0.4907    39.5768 </r>
       <r>     8.7300     0.5764    39.5826 </r>
       <r>     8.7400     0.6622    39.5892 </r>
       <r>     8.7500     0.7463    39.5967 </r>
       <r>     8.7600     0.8271    39.6049 </r>
       <r>     8.7700     0.9030    39.6140 </r>
       <r>     8.7800     0.9725    39.6237 </r>
       <r>     8.7900     1.0342    39.6340 </r>
       <r>     8.8000     1.0869    39.6449 </r>
       <r>     8.8100     1.1297    39.6562 </r>
       <r>     8.8200     1.1617    39.6678 </r>
       <r>     8.8300     1.1825    39.6796 </r>
       <r>     8.8400     1.1918    39.6915 </r>
       <r>     8.8500     1.1895    39.7034 </r>
       <r>     8.8600     1.1759    39.7152 </r>
       <r>     8.8700     1.1514    39.7267 </r>
       <r>     8.8800     1.1168    39.7379 </r>
       <r>     8.8900     1.0729    39.7486 </r>
       <r>     8.9000     1.0208    39.7588 </r>
       <r>     8.9100     0.9616    39.7684 </r>
       <r>     8.9200     0.8967    39.7774 </r>
       <r>     8.9300     0.8274    39.7857 </r>
       <r>     8.9400     0.7550    39.7932 </r>
       <r>     8.9500     0.6808    39.8000 </r>
       <r>     8.9600     0.6063    39.8061 </r>
       <r>     8.9700     0.5325    39.8114 </r>
       <r>     8.9800     0.4606    39.8160 </r>
       <r>     8.9900     0.3915    39.8199 </r>
       <r>     9.0000     0.3261    39.8232 </r>
      </set>
     </set>
    </array>
   </total>
   <partial>
    <array>
     <dimension dim="1">gridpoints</dimension>
     <dimension dim="2">spin</dimension>
     <dimension dim="3">ion</dimension>
     <field>energy</field>
     <field>  s  </field>
     <field>  p  </field>
     <field>  d  </field>
     <field>  f  </field>
     <field>     </field>
     <field>     </field>
     <field>     </field>
     <field>     </field>
     <field>     </field>
     <set>
      <set comment="ion 1">
       <set comment="spin 1">
        <r>     6.0000   200.0041   193.2074   193.2074   193.2074     5.1793     5.1793     3.5630     5.1793     3.5630 </r>
        <r>     6.0100     0.0035     0.0021     0.0021     0.0021     0.0026     0.0026     0.0106     0.0026     0.0106 </r>
        <r>     6.0200     0.0034     0.0022     0.0022     0.0022     0.0024     0.0024     0.0105     0.0024     0.0105 </r>
        <r>     6.0300     0.0034     0.0022     0.0022     0.0022     0.0023     0.0023     0.0104     0.0023     0.0104 </r>
        <r>     6.0400     0.0033     0.0023     0.0023     0.0023     0.0022     0.0022     0.0103     0.0022     0.0103 </r>
        <r>     6.0500     0.0033     0.0024     0.0024     0.0024     0.0021     0.0021     0.0102     0.0021     0.0102 </r>
        <r>     6.0600     0.0033     0.0025     0.0025     0.0025     0.0020     0.0020     0.0101     0.0020     0.0101 </r>
        <r>     6.0700     0.0033     0.0025     0.0025     0.0025     0.0020     0.0020     0.0101     0.0020     0.0101 </r>
        <r>     6.0800     0.0033     0.0026     0.0026     0.0026     0.0021     0.0021     0.0101     0.0021     0.0101 </r>
        <r>     6.0900     0.0033     0.0026     0.0026     0.0026     0.0021     0.0021     0.0102     0.0021     0.0102 </r>
        <r>     6.1000     0.0034     0.0027     0.0027     0.0027     0.0022     0.0022     0.0103     0.0022     0.0103 </r>
        <r>     6.1100     0.0035     0.0027     0.0027     0.0027     0.0023     0.0023     0.0106     0.0023     0.0106 </r>
        <r>     6.1200     0.0036     0.0027     0.0027     0.0027     0.0025     0.0025     0.0109     0.0025     0.0109 </r>
        <r>     6.1300     0.0038     0.0027     0.0027     0.0027     0.0026     0.0026     0.0113     0.0026     0.0113 </r>
        <r>     6.1400     0.0040     0.0028     0.0028     0.0028     0.0028     0.0028     0.0117     0.0028     0.0117 </r>
        <r>     6.1500     0.0042     0.0028     0.0028     0.0028     0.0030     0.0030     0.0123     0.0030     0.0123 </r>
        <r>     6.1600     0.0044     0.0028     0.0028     0.0028     0.0031     0.0031     0.0129     0.0031     0.0129 </r>
        <r>     6.1700     0.0046     0.0029     0.0029     0.0029     0.0033     0.0033     0.0135     0.0033     0.0135 </r>
        <r>     6.1800     0.0049     0.0029     0.0029     0.0029     0.0034     0.0034     0.0142     0.0034     0.0142 </r>
        <r>     6.1900     0.0051     0.0030     0.0030     0.0030     0.0035     0.0035     0.0150     0.0035     0.0150 </r>
        <r>     6.2000     0.0054     0.0030     0.0030     0.0030     0.0036     0.0036     0.0157     0.0036     0.0157 </r>
        <r>     6.2100     0.0056     0.0031     0.0031     0.0031     0.0037     0.0037     0.0165     0.0037     0.0165 </r>
        <r>     6.2200     0.0059     0.0032     0.0032     0.0032     0.0037     0.0037     0.0172     0.0037     0.0172 </r>
        <r>     6.2300     0.0061     0.0032     0.0032     0.0032     0.0037     0.0037     0.0179     0.0037     0.0179 </r>
        <r>     6.2400     0.0063     0.0033     0.0033     0.0033     0.0037     0.0037     0.0185     0.0037     0.0185 </r>
        <r>     6.2500     0.0065     0.0034     0.0034     0.0034     0.0036     0.0036     0.0191     0.0036     0.0191 </r>
        <r>     6.2600     0.0066     0.0035     0.0035     0.0035     0.0035     0.0035     0.0197     0.0035     0.0197 </r>
        <r>     6.2700     0.0068     0.0036     0.0036     0.0036     0.0034     0.0034     0.0201     0.0034     0.0201 </r>
        <r>     6.2800     0.0069     0.0037     0.0037     0.0037     0.0032     0.0032     0.0205     0.0032     0.0205 </r>
        <r>     6.2900     0.0069     0.0038     0.0038     0.0038     0.0030     0.0030     0.0209     0.0030     0.0209 </r>
        <r>     6.3000     0.0070     0.0039     0.0039     0.0039     0.0028     0.0028     0.0211     0.0028     0.0211 </r>
        <r>     6.3100     0.0070     0.0040     0.0040     0.0040     0.0026     0.0026     0.0213     0.0026     0.0213 </r>
        <r>     6.3200     0.0070     0.0041     0.0041     0.0041     0.0024     0.0024     0.0214     0.0024     0.0214 </r>
        <r>     6.3300     0.0069     0.0042     0.0042     0.0042     0.0021     0.0021     0.0215     0.0021     0.0215 </r>
        <r>     6.3400     0.0069     0.0042     0.0042     0.0042     0.0019     0.0019     0.0215     0.0019     0.0215 </r>
        <r>     6.3500     0.0068     0.0043     0.0043     0.0043     0.0017     0.0017     0.0214     0.0017     0.0214 </r>
        <r>     6.3600     0.0067     0.0043     0.0043     0.0043     0.0015     0.0015     0.0213     0.0015     0.0213 </r>
        <r>     6.3700     0.0066     0.0043     0.0043     0.0043     0.0013     0.0013     0.0211     0.0013     0.0211 </r>
        <r>     6.3800     0.0065     0.0043     0.0043     0.0043     0.0011     0.0011     0.0209     0.0011     0.0209 </r>
        <r>     6.3900     0.0064     0.0043     0.0043     0.0043     0.0009     0.0009     0.0207     0.0009     0.0207 </r>
        <r>     6.4000     0.0062     0.0043     0.0043     0.0043     0.0007     0.0007     0.0204     0.0007     0.0204 </r>
        <r>     6.4100     0.0061     0.0043     0.0043     0.0043     0.0006     0.0006     0.0201     0.0006     0.0201 </r>
        <r>     6.4200     0.0060     0.0042     0.0042     0.0042     0.0004     0.0004     0.0198     0.0004     0.0198 </r>
        <r>     6.4300     0.0058     0.0042     0.0042     0.0042     0.0003     0.0003     0.0195     0.0003     0.0195 </r>
        <r>     6.4400     0.0057     0.0042     0.0042     0.0042     0.0002     0.0002     0.0191     0.0002     0.0191 </r>
        <r>     6.4500     0.0056     0.0041     0.0041     0.0041     0.0001     0.0001     0.0188     0.0001     0.0188 </r>
        <r>     6.4600     0.0054     0.0040     0.0040     0.0040     0.0001     0.0001     0.0184     0.0001     0.0184 </r>
        <r>     6.4700     0.0053     0.0040     0.0040     0.0040     0.0000     0.0000     0.0179     0.0000     0.0179 </r>
        <r>     6.4800     0.0051     0.0039     0.0039     0.0039    -0.0000    -0.0000     0.0175    -0.0000     0.0175 </r>
[...]
     <r>      0.2236320      0.2079526 </r>
     <r>      0.2671403      0.1352285 </r>
     <r>      0.3270422      0.1655513 </r>
     <r>     -0.0445168     -0.0225347 </r>
     <r>     -0.0082888     -0.0050515 </r>
     <r>     -0.0228405     -0.0115620 </r>
     <r>     -0.0061351     -0.0067473 </r>
     <r>      0.0014372      0.0013373 </r>
     <r>      0.0064220      0.0032508 </r>
     <r>     -0.0020123     -0.0028470 </r>
     <r>      0.0025607      0.0012963 </r>
     <r>     -0.5901444     -0.2987365 </r>
    </set>
    <set comment="kpoint 710">
     <r>     -0.0000001     -0.0000001 </r>
     <r>      0.0251041      0.0267789 </r>
     <r>     -0.0073117     -0.0161666 </r>
     <r>      0.0461767      0.0492573 </r>
     <r>     -0.0037106     -0.0039581 </r>
     <r>     -0.0021860     -0.0061629 </r>
     <r>     -0.0015061     -0.0016066 </r>
     <r>      0.1196889      0.1276740 </r>
     <r>     -0.1390214     -0.2718982 </r>
     <r>     -0.2047789     -0.2184406 </r>
     <r>     -0.2506973     -0.2674223 </r>
     <r>      0.0341248      0.0364013 </r>
     <r>      0.0060613      0.0075818 </r>
     <r>      0.0175086      0.0186766 </r>
     <r>      0.0034574      0.0084387 </r>
     <r>     -0.0008932     -0.0017482 </r>
     <r>     -0.0049229     -0.0052512 </r>
     <r>      0.0009172      0.0033636 </r>
     <r>     -0.0019630     -0.0020939 </r>
     <r>      0.4523804      0.4825618 </r>
    </set>
    <set comment="kpoint 711">
     <r>     -0.0000000      0.0000000 </r>
     <r>     -0.0000000     -0.0000000 </r>
     <r>     -0.0146234     -0.0323332 </r>
     <r>     -0.0000000     -0.0000000 </r>
     <r>     -0.0000000      0.0000000 </r>
     <r>     -0.0043719     -0.0123257 </r>
     <r>     -0.0000000     -0.0000000 </r>
     <r>      0.0000002      0.0000002 </r>
     <r>     -0.2780428     -0.5437962 </r>
     <r>      0.0000001      0.0000001 </r>
     <r>      0.0000001      0.0000001 </r>
     <r>     -0.0000000     -0.0000000 </r>
     <r>      0.0121223      0.0151633 </r>
     <r>      0.0000000      0.0000000 </r>
     <r>      0.0069148      0.0168774 </r>
     <r>     -0.0017863     -0.0034964 </r>
     <r>     -0.0000000      0.0000000 </r>
     <r>      0.0018345      0.0067272 </r>
     <r>      0.0000000      0.0000000 </r>
     <r>      0.0000026      0.0000049 </r>
    </set>
    <set comment="kpoint 712">
     <r>      0.0000000     -0.0000000 </r>
     <r>      0.0000000      0.0000000 </r>
     <r>      0.0248001      0.0253817 </r>
     <r>      0.0000000      0.0000000 </r>
     <r>      0.0000000     -0.0000000 </r>
     <r>      0.0083239      0.0100871 </r>
     <r>      0.0000000      0.0000000 </r>
     <r>     -0.0000003     -0.0000001 </r>
     <r>      0.4472640      0.4159051 </r>
     <r>     -0.0000001     -0.0000001 </r>
     <r>     -0.0000001     -0.0000001 </r>
     <r>      0.0000001      0.0000000 </r>
     <r>     -0.0165774     -0.0101027 </r>
     <r>     -0.0000000     -0.0000000 </r>
     <r>     -0.0122702     -0.0134946 </r>
     <r>      0.0028744      0.0026746 </r>
     <r>      0.0000000     -0.0000000 </r>
     <r>     -0.0040247     -0.0056941 </r>
     <r>     -0.0000000     -0.0000000 </r>
     <r>     -0.0000041     -0.0000037 </r>
    </set>
    <set comment="kpoint 713">
     <r>     -0.0000002     -0.0000000 </r>
     <r>      0.0364440      0.0043773 </r>
     <r>      0.0159927      0.0076844 </r>
     <r>      0.0670354      0.0080515 </r>
     <r>     -0.0053868     -0.0006470 </r>
     <r>      0.0056360      0.0033159 </r>
     <r>     -0.0021865     -0.0002626 </r>
     <r>      0.1737540      0.0208694 </r>
     <r>      0.2812693      0.1189248 </r>
     <r>     -0.2972807     -0.0357059 </r>
     <r>     -0.3639411     -0.0437123 </r>
     <r>      0.0495395      0.0059501 </r>
     <r>     -0.0095163     -0.0019118 </r>
     <r>      0.0254174      0.0030528 </r>
     <r>     -0.0080728     -0.0042421 </r>
     <r>      0.0018079      0.0007651 </r>
     <r>     -0.0071466     -0.0008584 </r>
     <r>     -0.0028648     -0.0019871 </r>
     <r>     -0.0028497     -0.0003423 </r>
     <r>      0.6567231      0.0788772 </r>
    </set>
    <set comment="kpoint 714">
     <r>      0.0000001      0.0000002 </r>
     <r>     -0.0144312     -0.0337501 </r>
     <r>     -0.0013414     -0.0176923 </r>
     <r>     -0.0265449     -0.0620801 </r>
     <r>      0.0021331      0.0049886 </r>
     <r>      0.0000537     -0.0065388 </r>
     <r>      0.0008658      0.0020249 </r>
     <r>     -0.0688036     -0.1609101 </r>
     <r>     -0.0376427     -0.3030487 </r>
     <r>      0.1177182      0.2753056 </r>
     <r>      0.1441146      0.3370384 </r>
     <r>     -0.0196168     -0.0458775 </r>
     <r>      0.0031025      0.0091973 </r>
     <r>     -0.0100649     -0.0235385 </r>
     <r>      0.0003627      0.0091123 </r>
     <r>     -0.0002414     -0.0019482 </r>
     <r>      0.0028299      0.0066183 </r>
     <r>     -0.0002885      0.0034745 </r>
     <r>      0.0011284      0.0026390 </r>
     <r>     -0.2600520     -0.6081775 </r>
    </set>
    <set comment="kpoint 715">
     <r>      0.0000002      0.0000000 </r>
     <r>     -0.0364440     -0.0043773 </r>
     <r>      0.0159928      0.0076845 </r>
     <r>     -0.0670354     -0.0080515 </r>
     <r>      0.0053868      0.0006470 </r>
     <r>      0.0056360      0.0033159 </r>
     <r>      0.0021865      0.0002626 </r>
     <r>     -0.1737543     -0.0208694 </r>
     <r>      0.2812693      0.1189248 </r>
     <r>      0.2972806      0.0357059 </r>
     <r>      0.3639410      0.0437123 </r>
     <r>     -0.0495394     -0.0059501 </r>
     <r>     -0.0095167     -0.0019119 </r>
     <r>     -0.0254174     -0.0030528 </r>
     <r>     -0.0080728     -0.0042421 </r>
     <r>      0.0018079      0.0007651 </r>
     <r>      0.0071466      0.0008583 </r>
     <r>     -0.0028647     -0.0019871 </r>
     <r>      0.0028497      0.0003423 </r>
     <r>     -0.6567283     -0.0788792 </r>
    </set>
    <set comment="kpoint 716">
     <r>     -0.0000001     -0.0000002 </r>
     <r>      0.0144312      0.0337501 </r>
     <r>     -0.0013415     -0.0176924 </r>
     <r>      0.0265449      0.0620801 </r>
     <r>     -0.0021331     -0.0049886 </r>
     <r>      0.0000537     -0.0065388 </r>
     <r>     -0.0008658     -0.0020249 </r>
     <r>      0.0688037      0.1609104 </r>
     <r>     -0.0376427     -0.3030488 </r>
     <r>     -0.1177181     -0.2753055 </r>
     <r>     -0.1441145     -0.3370383 </r>
     <r>      0.0196168      0.0458774 </r>
     <r>      0.0031026      0.0091976 </r>
     <r>      0.0100649      0.0235385 </r>
     <r>      0.0003627      0.0091123 </r>
     <r>     -0.0002414     -0.0019482 </r>
     <r>     -0.0028299     -0.0066183 </r>
     <r>     -0.0002885      0.0034745 </r>
     <r>     -0.0011284     -0.0026390 </r>
     <r>      0.2600527      0.6081830 </r>
    </set>
    <set comment="kpoint 717">
     <r>     -0.0000000     -0.0000000 </r>
     <r>     -0.0000000     -0.0000000 </r>
     <r>     -0.0026829     -0.0353847 </r>
     <r>     -0.0000000     -0.0000000 </r>
     <r>     -0.0000000      0.0000000 </r>
     <r>      0.0001074     -0.0130777 </r>
     <r>     -0.0000000     -0.0000000 </r>
     <r>      0.0000001      0.0000003 </r>
     <r>     -0.0752855     -0.6060975 </r>
     <r>      0.0000001      0.0000001 </r>
     <r>      0.0000000      0.0000001 </r>
     <r>     -0.0000000     -0.0000001 </r>
     <r>      0.0062051      0.0183949 </r>
     <r>      0.0000000      0.0000000 </r>
     <r>      0.0007254      0.0182246 </r>
     <r>     -0.0004828     -0.0038965 </r>
     <r>     -0.0000000      0.0000000 </r>
     <r>     -0.0005770      0.0069490 </r>
     <r>     -0.0000000      0.0000000 </r>
     <r>      0.0000008      0.0000055 </r>
    </set>
    <set comment="kpoint 718">
     <r>      0.0000000     -0.0000000 </r>
     <r>      0.0000000      0.0000000 </r>
     <r>      0.0319855      0.0153689 </r>
     <r>      0.0000000      0.0000000 </r>
     <r>     -0.0000000     -0.0000000 </r>
     <r>      0.0112719      0.0066318 </r>
     <r>      0.0000000      0.0000000 </r>
     <r>     -0.0000003     -0.0000000 </r>
     <r>      0.5625386      0.2378497 </r>
     <r>     -0.0000001     -0.0000000 </r>
     <r>     -0.0000001     -0.0000000 </r>
     <r>      0.0000001      0.0000000 </r>
     <r>     -0.0190330     -0.0038237 </r>
     <r>     -0.0000000     -0.0000000 </r>
     <r>     -0.0161456     -0.0084841 </r>
     <r>      0.0036159      0.0015302 </r>
     <r>      0.0000000     -0.0000000 </r>
     <r>     -0.0057295     -0.0039742 </r>
     <r>     -0.0000000     -0.0000000 </r>
     <r>     -0.0000051     -0.0000021 </r>
    </set>
    <set comment="kpoint 719">
     <r>     -0.0000001     -0.0000001 </r>
     <r>      0.0327490      0.0165779 </r>
     <r>      0.0124000      0.0126909 </r>
     <r>      0.0602389      0.0304934 </r>
     <r>     -0.0048406     -0.0024503 </r>
     <r>      0.0041620      0.0050436 </r>
     <r>     -0.0019648     -0.0009946 </r>
     <r>      0.1561376      0.0790382 </r>
     <r>      0.2236320      0.2079525 </r>
     <r>     -0.2671404     -0.1352285 </r>
     <r>     -0.3270423     -0.1655513 </r>
     <r>      0.0445169      0.0225347 </r>
     <r>     -0.0082885     -0.0050513 </r>
     <r>      0.0228405      0.0115620 </r>
     <r>     -0.0061351     -0.0067473 </r>
     <r>      0.0014372      0.0013373 </r>
     <r>     -0.0064220     -0.0032509 </r>
     <r>     -0.0020124     -0.0028471 </r>
     <r>     -0.0025607     -0.0012963 </r>
     <r>      0.5901403      0.2987328 </r>
    </set>
    <set comment="kpoint 720">
     <r>      0.0000001      0.0000001 </r>
     <r>     -0.0251041     -0.0267789 </r>
     <r>     -0.0073117     -0.0161666 </r>
     <r>     -0.0461767     -0.0492573 </r>
     <r>      0.0037106      0.0039581 </r>
     <r>     -0.0021860     -0.0061629 </r>
     <r>      0.0015061      0.0016066 </r>
     <r>     -0.1196887     -0.1276738 </r>
     <r>     -0.1390214     -0.2718981 </r>
     <r>      0.2047790      0.2184406 </r>
     <r>      0.2506973      0.2674224 </r>
     <r>     -0.0341248     -0.0364014 </r>
     <r>      0.0060610      0.0075815 </r>
     <r>     -0.0175086     -0.0186766 </r>
     <r>      0.0034574      0.0084387 </r>
     <r>     -0.0008932     -0.0017482 </r>
     <r>      0.0049228      0.0052513 </r>
     <r>      0.0009172      0.0033636 </r>
     <r>      0.0019630      0.0020939 </r>
     <r>     -0.4523779     -0.4825569 </r>
    </set>
    <set comment="kpoint 721">
     <r>      0.0000001      0.0000002 </r>
     <r>     -0.0144312     -0.0337501 </r>
     <r>      0.0013415      0.0176924 </r>
     <r>     -0.0265449     -0.0620801 </r>
     <r>      0.0021331      0.0049886 </r>
     <r>     -0.0000537      0.0065388 </r>
     <r>      0.0008658      0.0020249 </r>
     <r>     -0.0688037     -0.1609104 </r>
     <r>      0.0376427      0.3030488 </r>
     <r>      0.1177181      0.2753055 </r>
     <r>      0.1441145      0.3370383 </r>
     <r>     -0.0196168     -0.0458774 </r>
     <r>     -0.0031026     -0.0091976 </r>
     <r>     -0.0100649     -0.0235385 </r>
     <r>     -0.0003627     -0.0091123 </r>
     <r>      0.0002414      0.0019482 </r>
     <r>      0.0028299      0.0066183 </r>
     <r>      0.0002885     -0.0034745 </r>
     <r>      0.0011284      0.0026390 </r>
     <r>     -0.2600527     -0.6081830 </r>
    </set>
    <set comment="kpoint 722">
     <r>     -0.0000002     -0.0000000 </r>
     <r>      0.0364440      0.0043773 </r>
     <r>     -0.0159928     -0.0076845 </r>
     <r>      0.0670354      0.0080515 </r>
     <r>     -0.0053868     -0.0006470 </r>
     <r>     -0.0056360     -0.0033159 </r>
     <r>     -0.0021865     -0.0002626 </r>
     <r>      0.1737543      0.0208694 </r>
     <r>     -0.2812693     -0.1189248 </r>
     <r>     -0.2972806     -0.0357059 </r>
     <r>     -0.3639410     -0.0437123 </r>
     <r>      0.0495394      0.0059501 </r>
     <r>      0.0095167      0.0019119 </r>
     <r>      0.0254174      0.0030528 </r>
     <r>      0.0080728      0.0042421 </r>
     <r>     -0.0018079     -0.0007651 </r>
     <r>     -0.0071466     -0.0008583 </r>
     <r>      0.0028647      0.0019871 </r>
     <r>     -0.0028497     -0.0003423 </r>
     <r>      0.6567283      0.0788792 </r>
    </set>
    <set comment="kpoint 723">
     <r>      0.0000000      0.0000000 </r>
     <r>      0.0000000     -0.0000000 </r>
     <r>     -0.0143588      0.0053609 </r>
     <r>     -0.0338756      0.0023884 </r>
     <r>     -0.0049986      0.0007595 </r>
     <r>     -0.0001312      0.0000830 </r>
     <r>      0.0000000      0.0000000 </r>
     <r>     -0.0000002      0.0000001 </r>
     <r>     -0.5239446      0.1225506 </r>
     <r>     -0.2505840     -0.1459453 </r>
     <r>      0.0000000      0.0000000 </r>
     <r>      0.0079227     -0.0010661 </r>
     <r>      0.0009762     -0.0005118 </r>
     <r>     -0.0031454      0.0012471 </r>
     <r>      0.0089472     -0.0007767 </r>
     <r>      0.0000000     -0.0000000 </r>
     <r>      0.0000000      0.0000000 </r>
     <r>     -0.0000291      0.0000195 </r>
     <r>      0.0032054     -0.0005043 </r>
     <r>      0.6537441     -0.1032404 </r>
    </set>
    <set comment="kpoint 724">
     <r>     -0.0000000     -0.0000000 </r>
     <r>     -0.0000000     -0.0000000 </r>
     <r>      0.0144454      0.0051230 </r>
     <r>      0.0274854      0.0199452 </r>
     <r>      0.0043174      0.0026313 </r>
     <r>      0.0001539      0.0000207 </r>
     <r>     -0.0000000     -0.0000000 </r>
     <r>      0.0000002      0.0000000 </r>
     <r>      0.4801389      0.2429059 </r>
     <r>      0.0981467      0.2728729 </r>
     <r>      0.0000000     -0.0000000 </r>
     <r>     -0.0067544     -0.0042759 </r>
     <r>     -0.0010768     -0.0002354 </r>
     <r>      0.0032111      0.0010665 </r>
     <r>     -0.0073532     -0.0051562 </r>
     <r>     -0.0000000     -0.0000000 </r>
     <r>     -0.0000000     -0.0000000 </r>
     <r>      0.0000348      0.0000037 </r>
     <r>     -0.0027796     -0.0016741 </r>
     <r>     -0.5671587     -0.3411319 </r>
    </set>
    <set comment="kpoint 725">
     <r>      0.0000000      0.0000000 </r>
     <r>      0.0000000      0.0000000 </r>
     <r>     -0.0153264      0.0001266 </r>
     <r>     -0.0326495     -0.0093418 </r>
     <r>     -0.0049570     -0.0009959 </r>
     <r>     -0.0001517      0.0000332 </r>
     <r>      0.0000000      0.0000000 </r>
     <r>     -0.0000002      0.0000000 </r>
     <r>     -0.5342617     -0.0640397 </r>
     <r>     -0.1855557     -0.2228485 </r>
     <r>     -0.0000000      0.0000000 </r>
     <r>      0.0078095      0.0017079 </r>
     <r>      0.0010924     -0.0001471 </r>
     <r>     -0.0033822      0.0000961 </r>
     <r>      0.0086733      0.0023303 </r>
     <r>      0.0000000     -0.0000000 </r>
     <r>      0.0000000      0.0000000 </r>
     <r>     -0.0000340      0.0000084 </r>
     <r>      0.0031845      0.0006224 </r>
     <r>      0.6496288      0.1265794 </r>
    </set>
    <set comment="kpoint 726">
     <r>     -0.0000000     -0.0000000 </r>
     <r>     -0.0000000     -0.0000000 </r>
     <r>      0.0153264     -0.0001266 </r>
     <r>      0.0326495      0.0093418 </r>
     <r>      0.0049570      0.0009959 </r>
     <r>      0.0001517     -0.0000332 </r>
     <r>     -0.0000000     -0.0000000 </r>
     <r>      0.0000002     -0.0000000 </r>
     <r>      0.5342617      0.0640397 </r>
     <r>      0.1855557      0.2228485 </r>
     <r>      0.0000000     -0.0000000 </r>
     <r>     -0.0078095     -0.0017079 </r>
     <r>     -0.0010924      0.0001471 </r>
     <r>      0.0033822     -0.0000961 </r>
     <r>     -0.0086733     -0.0023303 </r>
     <r>     -0.0000000      0.0000000 </r>
     <r>     -0.0000000     -0.0000000 </r>
     <r>      0.0000340     -0.0000084 </r>
     <r>     -0.0031845     -0.0006224 </r>
     <r>     -0.6496288     -0.1265794 </r>
    </set>
    <set comment="kpoint 727">
     <r>      0.0000000      0.0000000 </r>
     <r>      0.0000000      0.0000000 </r>
     <r>     -0.0144454     -0.0051230 </r>
     <r>     -0.0274854     -0.0199452 </r>
     <r>     -0.0043174     -0.0026313 </r>
     <r>     -0.0001539     -0.0000207 </r>
     <r>      0.0000000      0.0000000 </r>
     <r>     -0.0000002     -0.0000000 </r>
     <r>     -0.4801389     -0.2429059 </r>
     <r>     -0.0981467     -0.2728729 </r>
     <r>     -0.0000000      0.0000000 </r>
     <r>      0.0067544      0.0042759 </r>
     <r>      0.0010768      0.0002354 </r>
     <r>     -0.0032111     -0.0010665 </r>
     <r>      0.0073532      0.0051562 </r>
     <r>      0.0000000      0.0000000 </r>
     <r>      0.0000000      0.0000000 </r>
     <r>     -0.0000348     -0.0000037 </r>
     <r>      0.0027796      0.0016741 </r>
     <r>      0.5671587      0.3411319 </r>
    </set>
    <set comment="kpoint 728">
     <r>     -0.0000000     -0.0000000 </r>
     <r>     -0.0000000     -0.0000000 </r>
     <r>      0.0144454      0.0051230 </r>
     <r>      0.0274854      0.0199452 </r>
     <r>      0.0043174      0.0026313 </r>
     <r>      0.0001539      0.0000207 </r>
     <r>     -0.0000000     -0.0000000 </r>
     <r>      0.0000002      0.0000000 </r>
     <r>      0.4801389      0.2429059 </r>
     <r>      0.0981467      0.2728729 </r>
     <r>      0.0000000     -0.0000000 </r>
     <r>     -0.0067544     -0.0042759 </r>
     <r>     -0.0010768     -0.0002354 </r>
     <r>      0.0032111      0.0010665 </r>
     <r>     -0.0073532     -0.0051562 </r>
     <r>     -0.0000000     -0.0000000 </r>
     <r>     -0.0000000     -0.0000000 </r>
     <r>      0.0000348      0.0000037 </r>
     <r>     -0.0027796     -0.0016741 </r>
     <r>     -0.5671587     -0.3411319 </r>
    </set>
    <set comment="kpoint 729">
     <r>      0.0000000      0.0000000 </r>
     <r>      0.0000000      0.0000000 </r>
     <r>     -0.0153264      0.0001266 </r>
     <r>     -0.0326495     -0.0093418 </r>
     <r>     -0.0049570     -0.0009959 </r>
     <r>     -0.0001517      0.0000332 </r>
     <r>      0.0000000      0.0000000 </r>
     <r>     -0.0000002      0.0000000 </r>
     <r>     -0.5342617     -0.0640397 </r>
     <r>     -0.1855557     -0.2228485 </r>
     <r>     -0.0000000      0.0000000 </r>
     <r>      0.0078095      0.0017079 </r>
     <r>      0.0010924     -0.0001471 </r>
     <r>     -0.0033822      0.0000961 </r>
     <r>      0.0086733      0.0023303 </r>
     <r>      0.0000000     -0.0000000 </r>
     <r>      0.0000000      0.0000000 </r>
     <r>     -0.0000340      0.0000084 </r>
     <r>      0.0031845      0.0006224 </r>
     <r>      0.6496288      0.1265794 </r>
    </set>
   </set>
  </set>
 </locprojected>
 <structure name="finalpos" >
  <crystal>
   <varray name="basis" >
    <v>       3.84652000       0.00000000       0.00000000 </v>
    <v>       0.00000000       3.84652000       0.00000000 </v>
    <v>       0.00000000       0.00000000       3.84652000 </v>
   </varray>
   <i name="volume">     56.91201793 </i>
   <varray name="rec_basis" >
    <v>       0.25997525       0.00000000       0.00000000 </v>
    <v>       0.00000000       0.25997525       0.00000000 </v>
    <v>       0.00000000       0.00000000       0.25997525 </v>
   </varray>
  </crystal>
  <varray name="positions" >
   <v>       0.00000000       0.00000000       0.00000000 </v>
   <v>       0.50000000       0.50000000       0.50000000 </v>
   <v>       0.50000000       0.50000000       0.00000000 </v>
   <v>       0.00000000       0.50000000       0.50000000 </v>
   <v>       0.50000000       0.00000000       0.50000000 </v>
  </varray>
 </structure>
</modeling>
