 running on    4 total cores
 distrk:  each k-point on    4 cores,    1 groups
 distr:  one band on    1 cores,    4 groups
 using from now: INCAR     
 vasp.6.1.1 19Jun20 (build Jul 17 2020 22:48:28) complex                        
  
 POSCAR found type information on POSCAR SrV O 
 POSCAR found :  3 types and       5 ions
 scaLAPACK will be used
 LDA part: xc-table for Pade appr. of Perdew
 generate k-points for:    9    9    9
 POSCAR, INCAR and KPOINTS ok, starting setup
 FFT: planning ...
 WAVECAR not read
 entering main loop
       N       E                     dE             d eps       ncg     rms          rms(c)
DAV:   1     0.328505065819E+03    0.32851E+03   -0.13493E+04  1400   0.146E+03
DAV:   2     0.114857711912E+02   -0.31702E+03   -0.30233E+03  1592   0.386E+02
DAV:   3    -0.466824975171E+02   -0.58168E+02   -0.56270E+02  2020   0.162E+02
DAV:   4    -0.494487013998E+02   -0.27662E+01   -0.26918E+01  2124   0.370E+01
DAV:   5    -0.495498667524E+02   -0.10117E+00   -0.96544E-01  1988   0.524E+00    0.363E+01
DAV:   6    -0.404791159374E+02    0.90708E+01   -0.72314E+01  2152   0.793E+01    0.162E+01
DAV:   7    -0.399042813522E+02    0.57483E+00   -0.20757E+01  2020   0.795E+01    0.152E+01
DAV:   8    -0.390987902654E+02    0.80549E+00   -0.23890E+00  2048   0.202E+01    0.503E+00
DAV:   9    -0.390935997565E+02    0.51905E-02   -0.35415E-01  2172   0.850E+00    0.179E+00
DAV:  10    -0.390821469217E+02    0.11453E-01   -0.19320E-01  2008   0.706E+00    0.756E-01
DAV:  11    -0.390742081314E+02    0.79388E-02   -0.33690E-02  2016   0.282E+00    0.201E-01
DAV:  12    -0.390742431051E+02   -0.34974E-04   -0.20793E-03  2224   0.564E-01    0.592E-02
DAV:  13    -0.390742231122E+02    0.19993E-04   -0.33117E-04  2144   0.246E-01    0.253E-02
DAV:  14    -0.390742235758E+02   -0.46360E-06   -0.70993E-05  2216   0.819E-02    0.204E-02
DAV:  15    -0.390742242639E+02   -0.68807E-06   -0.26516E-05  2112   0.650E-02    0.170E-02
DAV:  16    -0.390742213741E+02    0.28898E-05   -0.10623E-05  1996   0.545E-02    0.256E-03
DAV:  17    -0.390742214053E+02   -0.31197E-07   -0.44619E-07  1784   0.371E-03    0.153E-03
DAV:  18    -0.390742214700E+02   -0.64716E-07   -0.26293E-08  1304   0.134E-03    0.378E-04
DAV:  19    -0.390742214763E+02   -0.63151E-08   -0.26354E-09   756   0.920E-04
   1 F= -.39074221E+02 E0= -.39071062E+02  d E =-.126393E-01
 writing wavefunctions
