SrVO3                                   
           1
     3.846520    0.000000    0.000000
     0.000000    3.846520    0.000000
     0.000000    0.000000    3.846520
   Sr   V    O 
     1     1     3
Direct configuration=     1
   0.00000000  0.00000000  0.00000000
   0.50000000  0.50000000  0.50000000
   0.50000000  0.50000000  0.00000000
   0.00000000  0.50000000  0.50000000
   0.50000000  0.00000000  0.50000000
