   4   4   0   0
  0.9063964E+01  0.5107186E-09  0.5107186E-09  0.5107186E-09  0.5000000E-15
  1.000000000000000E-004
  CAR 
 NiO                                     
     18.99607550    -14.29642748  301      7.39385929      1.00000000
    -14.296  0.0000E+00  0.0000E+00  0.0000E+00  0.0000E+00
    -14.185  0.0000E+00  0.0000E+00  0.0000E+00  0.0000E+00
    -14.074  0.0000E+00  0.0000E+00  0.0000E+00  0.0000E+00
    -13.964  0.0000E+00  0.0000E+00  0.0000E+00  0.0000E+00
    -13.853  0.0000E+00  0.0000E+00  0.0000E+00  0.0000E+00
    -13.742  0.0000E+00  0.0000E+00  0.0000E+00  0.0000E+00
    -13.631  0.0000E+00  0.0000E+00  0.0000E+00  0.0000E+00
    -13.520  0.0000E+00  0.0000E+00  0.0000E+00  0.0000E+00
    -13.409  0.0000E+00  0.0000E+00  0.0000E+00  0.0000E+00
    -13.298  0.0000E+00  0.0000E+00  0.0000E+00  0.0000E+00
    -13.187  0.0000E+00  0.0000E+00  0.0000E+00  0.0000E+00
    -13.076  0.0000E+00  0.0000E+00  0.0000E+00  0.0000E+00
    -12.965  0.0000E+00  0.0000E+00  0.0000E+00  0.0000E+00
    -12.854  0.0000E+00  0.0000E+00  0.0000E+00  0.0000E+00
    -12.743  0.0000E+00  0.0000E+00  0.0000E+00  0.0000E+00
    -12.632  0.0000E+00  0.0000E+00  0.0000E+00  0.0000E+00
    -12.521  0.0000E+00  0.0000E+00  0.0000E+00  0.0000E+00
    -12.410  0.0000E+00  0.0000E+00  0.0000E+00  0.0000E+00
    -12.299  0.0000E+00  0.0000E+00  0.0000E+00  0.0000E+00
    -12.188  0.7865E-01  0.7865E-01  0.3119E-02  0.3119E-02
    -12.077  0.2045E+00  0.2045E+00  0.1973E-01  0.1973E-01
    -11.966  0.2570E+00  0.2570E+00  0.4497E-01  0.4497E-01
    -11.855  0.3297E+00  0.3297E+00  0.7744E-01  0.7744E-01
    -11.744  0.4306E+00  0.4306E+00  0.1191E+00  0.1191E+00
    -11.633  0.5159E+00  0.5159E+00  0.1722E+00  0.1722E+00
    -11.522  0.5640E+00  0.5640E+00  0.2318E+00  0.2318E+00
    -11.411  0.7848E+00  0.7848E+00  0.3082E+00  0.3082E+00
    -11.300  0.9188E+00  0.9188E+00  0.4009E+00  0.4009E+00
    -11.189  0.1183E+01  0.1183E+01  0.5149E+00  0.5149E+00
    -11.078  0.1695E+01  0.1695E+01  0.6732E+00  0.6732E+00
    -10.967  0.2929E+01  0.2929E+01  0.9206E+00  0.9206E+00
    -10.856  0.4803E+01  0.4803E+01  0.1296E+01  0.1296E+01
    -10.745  0.5199E+01  0.5199E+01  0.1958E+01  0.1958E+01
    -10.634  0.0000E+00  0.0000E+00  0.2000E+01  0.2000E+01
    -10.523  0.0000E+00  0.0000E+00  0.2000E+01  0.2000E+01
    -10.412  0.0000E+00  0.0000E+00  0.2000E+01  0.2000E+01
    -10.301  0.0000E+00  0.0000E+00  0.2000E+01  0.2000E+01
    -10.190  0.0000E+00  0.0000E+00  0.2000E+01  0.2000E+01
    -10.079  0.0000E+00  0.0000E+00  0.2000E+01  0.2000E+01
     -9.968  0.0000E+00  0.0000E+00  0.2000E+01  0.2000E+01
     -9.857  0.0000E+00  0.0000E+00  0.2000E+01  0.2000E+01
     -9.746  0.0000E+00  0.0000E+00  0.2000E+01  0.2000E+01
     -9.635  0.0000E+00  0.0000E+00  0.2000E+01  0.2000E+01
     -9.525  0.0000E+00  0.0000E+00  0.2000E+01  0.2000E+01
     -9.414  0.0000E+00  0.0000E+00  0.2000E+01  0.2000E+01
     -9.303  0.0000E+00  0.0000E+00  0.2000E+01  0.2000E+01
     -9.192  0.0000E+00  0.0000E+00  0.2000E+01  0.2000E+01
     -9.081  0.0000E+00  0.0000E+00  0.2000E+01  0.2000E+01
     -8.970  0.0000E+00  0.0000E+00  0.2000E+01  0.2000E+01
     -8.859  0.0000E+00  0.0000E+00  0.2000E+01  0.2000E+01
     -8.748  0.0000E+00  0.0000E+00  0.2000E+01  0.2000E+01
     -8.637  0.0000E+00  0.0000E+00  0.2000E+01  0.2000E+01
     -8.526  0.0000E+00  0.0000E+00  0.2000E+01  0.2000E+01
     -8.415  0.0000E+00  0.0000E+00  0.2000E+01  0.2000E+01
     -8.304  0.0000E+00  0.0000E+00  0.2000E+01  0.2000E+01
     -8.193  0.0000E+00  0.0000E+00  0.2000E+01  0.2000E+01
     -8.082  0.0000E+00  0.0000E+00  0.2000E+01  0.2000E+01
     -7.971  0.0000E+00  0.0000E+00  0.2000E+01  0.2000E+01
     -7.860  0.0000E+00  0.0000E+00  0.2000E+01  0.2000E+01
     -7.749  0.0000E+00  0.0000E+00  0.2000E+01  0.2000E+01
     -7.638  0.0000E+00  0.0000E+00  0.2000E+01  0.2000E+01
     -7.527  0.0000E+00  0.0000E+00  0.2000E+01  0.2000E+01
     -7.416  0.0000E+00  0.0000E+00  0.2000E+01  0.2000E+01
     -7.305  0.0000E+00  0.0000E+00  0.2000E+01  0.2000E+01
     -7.194  0.0000E+00  0.0000E+00  0.2000E+01  0.2000E+01
     -7.083  0.0000E+00  0.0000E+00  0.2000E+01  0.2000E+01
     -6.972  0.0000E+00  0.0000E+00  0.2000E+01  0.2000E+01
     -6.861  0.0000E+00  0.0000E+00  0.2000E+01  0.2000E+01
     -6.750  0.0000E+00  0.0000E+00  0.2000E+01  0.2000E+01
     -6.639  0.0000E+00  0.0000E+00  0.2000E+01  0.2000E+01
     -6.528  0.0000E+00  0.0000E+00  0.2000E+01  0.2000E+01
     -6.417  0.0000E+00  0.0000E+00  0.2000E+01  0.2000E+01
     -6.306  0.0000E+00  0.0000E+00  0.2000E+01  0.2000E+01
     -6.195  0.0000E+00  0.0000E+00  0.2000E+01  0.2000E+01
     -6.084  0.0000E+00  0.0000E+00  0.2000E+01  0.2000E+01
     -5.973  0.0000E+00  0.0000E+00  0.2000E+01  0.2000E+01
     -5.862  0.0000E+00  0.0000E+00  0.2000E+01  0.2000E+01
     -5.751  0.0000E+00  0.0000E+00  0.2000E+01  0.2000E+01
     -5.640  0.0000E+00  0.0000E+00  0.2000E+01  0.2000E+01
     -5.529  0.0000E+00  0.0000E+00  0.2000E+01  0.2000E+01
     -5.418  0.0000E+00  0.0000E+00  0.2000E+01  0.2000E+01
     -5.307  0.0000E+00  0.0000E+00  0.2000E+01  0.2000E+01
     -5.196  0.0000E+00  0.0000E+00  0.2000E+01  0.2000E+01
     -5.086  0.0000E+00  0.0000E+00  0.2000E+01  0.2000E+01
     -4.975  0.0000E+00  0.0000E+00  0.2000E+01  0.2000E+01
     -4.864  0.0000E+00  0.0000E+00  0.2000E+01  0.2000E+01
     -4.753  0.0000E+00  0.0000E+00  0.2000E+01  0.2000E+01
     -4.642  0.0000E+00  0.0000E+00  0.2000E+01  0.2000E+01
     -4.531  0.0000E+00  0.0000E+00  0.2000E+01  0.2000E+01
     -4.420  0.0000E+00  0.0000E+00  0.2000E+01  0.2000E+01
     -4.309  0.0000E+00  0.0000E+00  0.2000E+01  0.2000E+01
     -4.198  0.0000E+00  0.0000E+00  0.2000E+01  0.2000E+01
     -4.087  0.0000E+00  0.0000E+00  0.2000E+01  0.2000E+01
     -3.976  0.0000E+00  0.0000E+00  0.2000E+01  0.2000E+01
     -3.865  0.0000E+00  0.0000E+00  0.2000E+01  0.2000E+01
     -3.754  0.0000E+00  0.0000E+00  0.2000E+01  0.2000E+01
     -3.643  0.0000E+00  0.0000E+00  0.2000E+01  0.2000E+01
     -3.532  0.0000E+00  0.0000E+00  0.2000E+01  0.2000E+01
     -3.421  0.0000E+00  0.0000E+00  0.2000E+01  0.2000E+01
     -3.310  0.0000E+00  0.0000E+00  0.2000E+01  0.2000E+01
     -3.199  0.0000E+00  0.0000E+00  0.2000E+01  0.2000E+01
     -3.088  0.0000E+00  0.0000E+00  0.2000E+01  0.2000E+01
     -2.977  0.0000E+00  0.0000E+00  0.2000E+01  0.2000E+01
     -2.866  0.0000E+00  0.0000E+00  0.2000E+01  0.2000E+01
     -2.755  0.0000E+00  0.0000E+00  0.2000E+01  0.2000E+01
     -2.644  0.0000E+00  0.0000E+00  0.2000E+01  0.2000E+01
     -2.533  0.0000E+00  0.0000E+00  0.2000E+01  0.2000E+01
     -2.422  0.0000E+00  0.0000E+00  0.2000E+01  0.2000E+01
     -2.311  0.0000E+00  0.0000E+00  0.2000E+01  0.2000E+01
     -2.200  0.0000E+00  0.0000E+00  0.2000E+01  0.2000E+01
     -2.089  0.0000E+00  0.0000E+00  0.2000E+01  0.2000E+01
     -1.978  0.0000E+00  0.0000E+00  0.2000E+01  0.2000E+01
     -1.867  0.0000E+00  0.0000E+00  0.2000E+01  0.2000E+01
     -1.756  0.0000E+00  0.0000E+00  0.2000E+01  0.2000E+01
     -1.645  0.0000E+00  0.0000E+00  0.2000E+01  0.2000E+01
     -1.534  0.0000E+00  0.0000E+00  0.2000E+01  0.2000E+01
     -1.423  0.0000E+00  0.0000E+00  0.2000E+01  0.2000E+01
     -1.312  0.0000E+00  0.0000E+00  0.2000E+01  0.2000E+01
     -1.201  0.0000E+00  0.0000E+00  0.2000E+01  0.2000E+01
     -1.090  0.0000E+00  0.0000E+00  0.2000E+01  0.2000E+01
     -0.979  0.0000E+00  0.0000E+00  0.2000E+01  0.2000E+01
     -0.868  0.0000E+00  0.0000E+00  0.2000E+01  0.2000E+01
     -0.757  0.0000E+00  0.0000E+00  0.2000E+01  0.2000E+01
     -0.647  0.0000E+00  0.0000E+00  0.2000E+01  0.2000E+01
     -0.536  0.0000E+00  0.0000E+00  0.2000E+01  0.2000E+01
     -0.425  0.0000E+00  0.0000E+00  0.2000E+01  0.2000E+01
     -0.314  0.0000E+00  0.0000E+00  0.2000E+01  0.2000E+01
     -0.203  0.0000E+00  0.0000E+00  0.2000E+01  0.2000E+01
     -0.092  0.2779E-02  0.2779E-02  0.2000E+01  0.2000E+01
      0.019  0.2610E-01  0.2610E-01  0.2001E+01  0.2001E+01
      0.130  0.2700E+00  0.2700E+00  0.2026E+01  0.2026E+01
      0.241  0.3594E+00  0.3594E+00  0.2062E+01  0.2062E+01
      0.352  0.4531E+00  0.4531E+00  0.2107E+01  0.2107E+01
      0.463  0.5693E+00  0.5693E+00  0.2164E+01  0.2164E+01
      0.574  0.7393E+00  0.7393E+00  0.2235E+01  0.2235E+01
      0.685  0.1156E+01  0.1156E+01  0.2340E+01  0.2340E+01
      0.796  0.1605E+01  0.1605E+01  0.2492E+01  0.2492E+01
      0.907  0.2237E+01  0.2237E+01  0.2746E+01  0.2746E+01
      1.018  0.1059E+01  0.1059E+01  0.2913E+01  0.2913E+01
      1.129  0.2390E+01  0.2390E+01  0.3080E+01  0.3080E+01
      1.240  0.1876E+01  0.1876E+01  0.3302E+01  0.3302E+01
      1.351  0.1198E+01  0.1198E+01  0.3468E+01  0.3468E+01
      1.462  0.9947E+00  0.9947E+00  0.3586E+01  0.3586E+01
      1.573  0.7123E+00  0.7123E+00  0.3678E+01  0.3678E+01
      1.684  0.3998E+00  0.3998E+00  0.3748E+01  0.3748E+01
      1.795  0.5041E+00  0.5041E+00  0.3791E+01  0.3791E+01
      1.906  0.1034E+01  0.1034E+01  0.3877E+01  0.3877E+01
      2.017  0.1263E+01  0.1263E+01  0.4006E+01  0.4006E+01
      2.128  0.1490E+01  0.1490E+01  0.4160E+01  0.4160E+01
      2.239  0.1990E+01  0.1990E+01  0.4360E+01  0.4360E+01
      2.350  0.2059E+01  0.2059E+01  0.4566E+01  0.4566E+01
      2.461  0.2328E+01  0.2328E+01  0.4813E+01  0.4813E+01
      2.572  0.4873E+01  0.4873E+01  0.5155E+01  0.5155E+01
      2.683  0.3246E+01  0.3246E+01  0.5604E+01  0.5604E+01
      2.794  0.3188E+01  0.3188E+01  0.5963E+01  0.5963E+01
      2.905  0.2385E+01  0.2385E+01  0.6272E+01  0.6272E+01
      3.016  0.1937E+01  0.1937E+01  0.6509E+01  0.6509E+01
      3.127  0.1786E+01  0.1786E+01  0.6713E+01  0.6713E+01
      3.238  0.1680E+01  0.1680E+01  0.6906E+01  0.6906E+01
      3.349  0.1611E+01  0.1611E+01  0.7087E+01  0.7087E+01
      3.460  0.1616E+01  0.1616E+01  0.7267E+01  0.7267E+01
      3.571  0.1482E+01  0.1482E+01  0.7441E+01  0.7441E+01
      3.682  0.1248E+01  0.1248E+01  0.7590E+01  0.7590E+01
      3.792  0.8704E+00  0.8704E+00  0.7718E+01  0.7718E+01
      3.903  0.5948E+00  0.5948E+00  0.7794E+01  0.7794E+01
      4.014  0.4392E+00  0.4392E+00  0.7851E+01  0.7851E+01
      4.125  0.3414E+00  0.3414E+00  0.7894E+01  0.7894E+01
      4.236  0.2662E+00  0.2662E+00  0.7928E+01  0.7928E+01
      4.347  0.2063E+00  0.2063E+00  0.7954E+01  0.7954E+01
      4.458  0.1488E+00  0.1488E+00  0.7974E+01  0.7974E+01
      4.569  0.8712E-01  0.8712E-01  0.7986E+01  0.7986E+01
      4.680  0.4588E-01  0.4588E-01  0.7994E+01  0.7994E+01
      4.791  0.2399E-01  0.2399E-01  0.7997E+01  0.7997E+01
      4.902  0.3992E-01  0.3992E-01  0.8000E+01  0.8000E+01
      5.013  0.1231E+00  0.1231E+00  0.8009E+01  0.8009E+01
      5.124  0.2537E+00  0.2537E+00  0.8029E+01  0.8029E+01
      5.235  0.4026E+00  0.4026E+00  0.8065E+01  0.8065E+01
      5.346  0.6047E+00  0.6047E+00  0.8120E+01  0.8120E+01
      5.457  0.1093E+01  0.1093E+01  0.8208E+01  0.8208E+01
      5.568  0.2392E+01  0.2392E+01  0.8391E+01  0.8391E+01
      5.679  0.1933E+01  0.1933E+01  0.8660E+01  0.8660E+01
      5.790  0.1675E+01  0.1675E+01  0.8853E+01  0.8853E+01
      5.901  0.1955E+01  0.1955E+01  0.9062E+01  0.9062E+01
      6.012  0.3417E+01  0.3417E+01  0.9327E+01  0.9327E+01
      6.123  0.8221E+01  0.8221E+01  0.9899E+01  0.9899E+01
      6.234  0.4995E+01  0.4995E+01  0.1043E+02  0.1043E+02
      6.345  0.4445E+01  0.4445E+01  0.1106E+02  0.1106E+02
      6.456  0.2680E+01  0.2680E+01  0.1135E+02  0.1135E+02
      6.567  0.7819E+01  0.7819E+01  0.1196E+02  0.1196E+02
      6.678  0.7182E+01  0.7182E+01  0.1237E+02  0.1237E+02
      6.789  0.2911E+01  0.2911E+01  0.1294E+02  0.1294E+02
      6.900  0.3959E+01  0.3959E+01  0.1332E+02  0.1332E+02
      7.011  0.4606E+01  0.4606E+01  0.1379E+02  0.1379E+02
      7.122  0.6734E+01  0.6734E+01  0.1422E+02  0.1422E+02
      7.233  0.7817E+01  0.7817E+01  0.1510E+02  0.1510E+02
      7.344  0.5051E+01  0.5051E+01  0.1599E+02  0.1599E+02
      7.455  0.0000E+00  0.0000E+00  0.1600E+02  0.1600E+02
      7.566  0.0000E+00  0.0000E+00  0.1600E+02  0.1600E+02
      7.677  0.0000E+00  0.0000E+00  0.1600E+02  0.1600E+02
      7.788  0.0000E+00  0.0000E+00  0.1600E+02  0.1600E+02
      7.899  0.0000E+00  0.0000E+00  0.1600E+02  0.1600E+02
      8.010  0.0000E+00  0.0000E+00  0.1600E+02  0.1600E+02
      8.121  0.0000E+00  0.0000E+00  0.1600E+02  0.1600E+02
      8.231  0.0000E+00  0.0000E+00  0.1600E+02  0.1600E+02
      8.342  0.0000E+00  0.0000E+00  0.1600E+02  0.1600E+02
      8.453  0.7908E-02  0.7908E-02  0.1600E+02  0.1600E+02
      8.564  0.3584E+00  0.3584E+00  0.1602E+02  0.1602E+02
      8.675  0.8923E+00  0.8923E+00  0.1609E+02  0.1609E+02
      8.786  0.2617E+01  0.2617E+01  0.1628E+02  0.1628E+02
      8.897  0.2938E+01  0.2938E+01  0.1662E+02  0.1662E+02
      9.008  0.1320E+01  0.1320E+01  0.1685E+02  0.1685E+02
      9.119  0.3868E+01  0.3868E+01  0.1711E+02  0.1711E+02
      9.230  0.2826E+01  0.2826E+01  0.1747E+02  0.1747E+02
      9.341  0.2082E+01  0.2082E+01  0.1775E+02  0.1775E+02
      9.452  0.1188E+01  0.1188E+01  0.1794E+02  0.1794E+02
      9.563  0.1576E+00  0.1576E+00  0.1800E+02  0.1800E+02
      9.674  0.1208E-06  0.1208E-06  0.1800E+02  0.1800E+02
      9.785  0.4839E-03  0.4839E-03  0.1800E+02  0.1800E+02
      9.896  0.1905E-02  0.1905E-02  0.1800E+02  0.1800E+02
     10.007  0.4263E-02  0.4263E-02  0.1800E+02  0.1800E+02
     10.118  0.7440E-02  0.7440E-02  0.1800E+02  0.1800E+02
     10.229  0.1097E-01  0.1097E-01  0.1800E+02  0.1800E+02
     10.340  0.1481E-01  0.1481E-01  0.1800E+02  0.1800E+02
     10.451  0.1897E-01  0.1897E-01  0.1801E+02  0.1801E+02
     10.562  0.2343E-01  0.2343E-01  0.1801E+02  0.1801E+02
     10.673  0.2820E-01  0.2820E-01  0.1801E+02  0.1801E+02
     10.784  0.3328E-01  0.3328E-01  0.1801E+02  0.1801E+02
     10.895  0.3866E-01  0.3866E-01  0.1802E+02  0.1802E+02
     11.006  0.4131E-01  0.4131E-01  0.1802E+02  0.1802E+02
     11.117  0.4557E-01  0.4557E-01  0.1803E+02  0.1803E+02
     11.228  0.4995E-01  0.4995E-01  0.1803E+02  0.1803E+02
     11.339  0.5445E-01  0.5445E-01  0.1804E+02  0.1804E+02
     11.450  0.5906E-01  0.5906E-01  0.1804E+02  0.1804E+02
     11.561  0.6380E-01  0.6380E-01  0.1805E+02  0.1805E+02
     11.672  0.6867E-01  0.6867E-01  0.1806E+02  0.1806E+02
     11.783  0.7368E-01  0.7368E-01  0.1807E+02  0.1807E+02
     11.894  0.7884E-01  0.7884E-01  0.1808E+02  0.1808E+02
     12.005  0.8496E-01  0.8496E-01  0.1808E+02  0.1808E+02
     12.116  0.9157E-01  0.9157E-01  0.1809E+02  0.1809E+02
     12.227  0.9824E-01  0.9824E-01  0.1810E+02  0.1810E+02
     12.338  0.1050E+00  0.1050E+00  0.1812E+02  0.1812E+02
     12.449  0.1114E+00  0.1114E+00  0.1813E+02  0.1813E+02
     12.560  0.1183E+00  0.1183E+00  0.1814E+02  0.1814E+02
     12.670  0.1261E+00  0.1261E+00  0.1815E+02  0.1815E+02
     12.781  0.1354E+00  0.1354E+00  0.1817E+02  0.1817E+02
     12.892  0.1491E+00  0.1491E+00  0.1818E+02  0.1818E+02
     13.003  0.1645E+00  0.1645E+00  0.1820E+02  0.1820E+02
     13.114  0.1796E+00  0.1796E+00  0.1822E+02  0.1822E+02
     13.225  0.1954E+00  0.1954E+00  0.1824E+02  0.1824E+02
     13.336  0.2121E+00  0.2121E+00  0.1826E+02  0.1826E+02
     13.447  0.2310E+00  0.2310E+00  0.1829E+02  0.1829E+02
     13.558  0.2526E+00  0.2526E+00  0.1832E+02  0.1832E+02
     13.669  0.2831E+00  0.2831E+00  0.1835E+02  0.1835E+02
     13.780  0.3210E+00  0.3210E+00  0.1838E+02  0.1838E+02
     13.891  0.3577E+00  0.3577E+00  0.1842E+02  0.1842E+02
     14.002  0.3840E+00  0.3840E+00  0.1846E+02  0.1846E+02
     14.113  0.4105E+00  0.4105E+00  0.1850E+02  0.1850E+02
     14.224  0.4351E+00  0.4351E+00  0.1855E+02  0.1855E+02
     14.335  0.4545E+00  0.4545E+00  0.1860E+02  0.1860E+02
     14.446  0.4667E+00  0.4667E+00  0.1865E+02  0.1865E+02
     14.557  0.5328E+00  0.5328E+00  0.1870E+02  0.1870E+02
     14.668  0.6179E+00  0.6179E+00  0.1877E+02  0.1877E+02
     14.779  0.6772E+00  0.6772E+00  0.1884E+02  0.1884E+02
     14.890  0.7098E+00  0.7098E+00  0.1892E+02  0.1892E+02
     15.001  0.7222E+00  0.7222E+00  0.1899E+02  0.1899E+02
     15.112  0.6883E+00  0.6883E+00  0.1907E+02  0.1907E+02
     15.223  0.6352E+00  0.6352E+00  0.1915E+02  0.1915E+02
     15.334  0.6169E+00  0.6169E+00  0.1922E+02  0.1922E+02
     15.445  0.5959E+00  0.5959E+00  0.1928E+02  0.1928E+02
     15.556  0.5711E+00  0.5711E+00  0.1935E+02  0.1935E+02
     15.667  0.5598E+00  0.5598E+00  0.1941E+02  0.1941E+02
     15.778  0.5641E+00  0.5641E+00  0.1947E+02  0.1947E+02
     15.889  0.5683E+00  0.5683E+00  0.1954E+02  0.1954E+02
     16.000  0.5768E+00  0.5768E+00  0.1960E+02  0.1960E+02
     16.111  0.7562E+00  0.7562E+00  0.1970E+02  0.1970E+02
     16.222  0.5102E+00  0.5102E+00  0.1975E+02  0.1975E+02
     16.333  0.4595E+00  0.4595E+00  0.1980E+02  0.1980E+02
     16.444  0.4828E+00  0.4828E+00  0.1985E+02  0.1985E+02
     16.555  0.4923E+00  0.4923E+00  0.1991E+02  0.1991E+02
     16.666  0.3887E+00  0.3887E+00  0.1996E+02  0.1996E+02
     16.777  0.1477E+00  0.1477E+00  0.1999E+02  0.1999E+02
     16.888  0.3090E-01  0.3090E-01  0.2000E+02  0.2000E+02
     16.999  0.0000E+00  0.0000E+00  0.2000E+02  0.2000E+02
     17.110  0.0000E+00  0.0000E+00  0.2000E+02  0.2000E+02
     17.220  0.0000E+00  0.0000E+00  0.2000E+02  0.2000E+02
     17.331  0.0000E+00  0.0000E+00  0.2000E+02  0.2000E+02
     17.442  0.0000E+00  0.0000E+00  0.2000E+02  0.2000E+02
     17.553  0.0000E+00  0.0000E+00  0.2000E+02  0.2000E+02
     17.664  0.0000E+00  0.0000E+00  0.2000E+02  0.2000E+02
     17.775  0.0000E+00  0.0000E+00  0.2000E+02  0.2000E+02
     17.886  0.0000E+00  0.0000E+00  0.2000E+02  0.2000E+02
     17.997  0.0000E+00  0.0000E+00  0.2000E+02  0.2000E+02
     18.108  0.0000E+00  0.0000E+00  0.2000E+02  0.2000E+02
     18.219  0.0000E+00  0.0000E+00  0.2000E+02  0.2000E+02
     18.330  0.0000E+00  0.0000E+00  0.2000E+02  0.2000E+02
     18.441  0.0000E+00  0.0000E+00  0.2000E+02  0.2000E+02
     18.552  0.0000E+00  0.0000E+00  0.2000E+02  0.2000E+02
     18.663  0.0000E+00  0.0000E+00  0.2000E+02  0.2000E+02
     18.774  0.0000E+00  0.0000E+00  0.2000E+02  0.2000E+02
     18.885  0.0000E+00  0.0000E+00  0.2000E+02  0.2000E+02
     18.996  0.0000E+00  0.0000E+00  0.2000E+02  0.2000E+02
