    4    4    1    2
  0.9063964E+01  0.5107186E-09  0.5107186E-09  0.5107186E-09  0.5000000E-15
  1.000000000000000E-004
  CAR 
 NiO                                     
     32     44     20
 
  0.0000000E+00  0.0000000E+00  0.0000000E+00  0.2915452E-02
    1      -12.296427    -12.296427   1.000000   1.000000
    2      -10.891051    -10.891051   1.000000   1.000000
    3       -0.145504     -0.145504   1.000000   1.000000
    4        2.457133      2.457133   1.000000   1.000000
    5        2.457212      2.457212   1.000000   1.000000
    6        5.113617      5.113617   1.000000   1.000000
    7        5.113618      5.113618   1.000000   1.000000
    8        5.120187      5.120187   1.000000   1.000000
    9        5.572420      5.572420   1.000000   1.000000
   10        5.572463      5.572463   1.000000   1.000000
   11        5.660930      5.660930   1.000000   1.000000
   12        5.899224      5.899224   1.000000   1.000000
   13        5.899277      5.899277   1.000000   1.000000
   14        6.830319      6.830319   1.000000   1.000000
   15        6.830461      6.830461   1.000000   1.000000
   16        7.111087      7.111087   1.000000   1.000000
   17        9.497959      9.497959   0.000000   0.000000
   18        9.498256      9.498256   0.000000   0.000000
   19        9.672393      9.672393   0.000000   0.000000
   20       13.645418     13.645418   0.000000   0.000000
 
  0.1428571E+00  0.9013175E-17 -0.2091397E-14  0.1749271E-01
    1      -12.086379    -12.086379   1.000000   1.000000
    2      -10.856058    -10.856058   1.000000   1.000000
    3        0.206425      0.206425   1.000000   1.000000
    4        2.334522      2.334522   1.000000   1.000000
    5        2.514121      2.514121   1.000000   1.000000
    6        3.501256      3.501256   1.000000   1.000000
    7        4.367611      4.367611   1.000000   1.000000
    8        4.426400      4.426400   1.000000   1.000000
    9        5.599387      5.599387   1.000000   1.000000
   10        5.951529      5.951529   1.000000   1.000000
   11        6.003478      6.003478   1.000000   1.000000
   12        6.159402      6.159402   1.000000   1.000000
   13        6.515988      6.515988   1.000000   1.000000
   14        6.933422      6.933422   1.000000   1.000000
   15        6.963394      6.963394   1.000000   1.000000
   16        7.115171      7.115171   1.000000   1.000000
   17        8.922026      8.922026   0.000000   0.000000
   18        9.371981      9.371981   0.000000   0.000000
   19       10.934090     10.934090   0.000000   0.000000
   20       14.804563     14.804563   0.000000   0.000000
 
  0.2857143E+00  0.3183475E-16  0.3005761E-14  0.1749271E-01
    1      -11.567613    -11.567613   1.000000   1.000000
    2      -10.779891    -10.779891   1.000000   1.000000
    3        1.004952      1.004952   1.000000   1.000000
    4        1.736222      1.736222   1.000000   1.000000
    5        1.957016      1.957016   1.000000   1.000000
    6        2.624748      2.624748   1.000000   1.000000
    7        3.402855      3.402855   1.000000   1.000000
    8        3.723832      3.723832   1.000000   1.000000
    9        5.534074      5.534074   1.000000   1.000000
   10        6.101001      6.101001   1.000000   1.000000
   11        6.264687      6.264687   1.000000   1.000000
   12        6.546780      6.546780   1.000000   1.000000
   13        6.591158      6.591158   1.000000   1.000000
   14        6.838959      6.838959   1.000000   1.000000
   15        7.208623      7.208623   1.000000   1.000000
   16        7.229477      7.229477   1.000000   1.000000
   17        8.745366      8.745366   0.000000   0.000000
   18        9.124977      9.124977   0.000000   0.000000
   19       13.178453     13.178453   0.000000   0.000000
   20       16.817224     16.817224   0.000000   0.000000
 
  0.4285714E+00  0.9148450E-16  0.1043392E-14  0.1749271E-01
    1      -11.036991    -11.036991   1.000000   1.000000
    2      -10.777073    -10.777073   1.000000   1.000000
    3        0.898332      0.898332   1.000000   1.000000
    4        1.079152      1.079152   1.000000   1.000000
    5        1.995229      1.995229   1.000000   1.000000
    6        2.688292      2.688292   1.000000   1.000000
    7        2.695904      2.695904   1.000000   1.000000
    8        3.338406      3.338406   1.000000   1.000000
    9        5.509002      5.509002   1.000000   1.000000
   10        6.158892      6.158892   1.000000   1.000000
   11        6.361964      6.361964   1.000000   1.000000
   12        6.524461      6.524461   1.000000   1.000000
   13        6.848156      6.848156   1.000000   1.000000
   14        6.951822      6.951822   1.000000   1.000000
   15        7.262889      7.262889   1.000000   1.000000
   16        7.317461      7.317461   1.000000   1.000000
   17        8.952038      8.952038   0.000000   0.000000
   18        8.962096      8.962096   0.000000   0.000000
   19       14.981862     14.981862   0.000000   0.000000
   20       16.246546     16.246546   0.000000   0.000000
 
  0.1428571E+00  0.1428571E+00  0.1020682E-14  0.1749271E-01
    1      -12.066758    -12.066758   1.000000   1.000000
    2      -10.883633    -10.883633   1.000000   1.000000
    3        0.265462      0.265462   1.000000   1.000000
    4        2.327989      2.327989   1.000000   1.000000
    5        2.599319      2.599319   1.000000   1.000000
    6        3.560716      3.560716   1.000000   1.000000
    7        4.162804      4.162804   1.000000   1.000000
    8        4.163389      4.163389   1.000000   1.000000
    9        5.690276      5.690276   1.000000   1.000000
   10        5.825140      5.825140   1.000000   1.000000
   11        5.965517      5.965517   1.000000   1.000000
   12        6.455423      6.455423   1.000000   1.000000
   13        6.544090      6.544090   1.000000   1.000000
   14        6.867589      6.867589   1.000000   1.000000
   15        7.121811      7.121811   1.000000   1.000000
   16        7.126161      7.126161   1.000000   1.000000
   17        9.075656      9.075656   0.000000   0.000000
   18        9.160904      9.160904   0.000000   0.000000
   19       10.926661     10.926661   0.000000   0.000000
   20       14.766901     14.766901   0.000000   0.000000
 
  0.2857143E+00  0.1428571E+00 -0.9341929E-15  0.3498542E-01
    1      -11.689179    -11.689179   1.000000   1.000000
    2      -10.836941    -10.836941   1.000000   1.000000
    3        0.831082      0.831082   1.000000   1.000000
    4        2.056958      2.056958   1.000000   1.000000
    5        2.264039      2.264039   1.000000   1.000000
    6        2.667634      2.667634   1.000000   1.000000
    7        3.409586      3.409586   1.000000   1.000000
    8        3.761845      3.761845   1.000000   1.000000
    9        5.741020      5.741020   1.000000   1.000000
   10        6.020040      6.020040   1.000000   1.000000
   11        6.180685      6.180685   1.000000   1.000000
   12        6.314114      6.314114   1.000000   1.000000
   13        6.802308      6.802308   1.000000   1.000000
   14        6.813040      6.813040   1.000000   1.000000
   15        7.180250      7.180250   1.000000   1.000000
   16        7.221397      7.221397   1.000000   1.000000
   17        8.814036      8.814036   0.000000   0.000000
   18        9.076892      9.076892   0.000000   0.000000
   19       12.626488     12.626488   0.000000   0.000000
   20       16.093427     16.093427   0.000000   0.000000
 
  0.4285714E+00  0.1428571E+00 -0.3182375E-14  0.3498542E-01
    1      -11.175985    -11.175985   1.000000   1.000000
    2      -10.763704    -10.763704   1.000000   1.000000
    3        1.090773      1.090773   1.000000   1.000000
    4        1.216917      1.216917   1.000000   1.000000
    5        2.058708      2.058708   1.000000   1.000000
    6        2.543281      2.543281   1.000000   1.000000
    7        3.000970      3.000970   1.000000   1.000000
    8        3.096909      3.096909   1.000000   1.000000
    9        5.761600      5.761600   1.000000   1.000000
   10        6.131722      6.131722   1.000000   1.000000
   11        6.293451      6.293451   1.000000   1.000000
   12        6.457366      6.457366   1.000000   1.000000
   13        6.639389      6.639389   1.000000   1.000000
   14        6.963720      6.963720   1.000000   1.000000
   15        7.121677      7.121677   1.000000   1.000000
   16        7.293513      7.293513   1.000000   1.000000
   17        8.819686      8.819686   0.000000   0.000000
   18        9.131834      9.131834   0.000000   0.000000
   19       14.656041     14.656041   0.000000   0.000000
   20       16.996075     16.996075   0.000000   0.000000
 
 -0.4285714E+00  0.1428571E+00  0.1963875E-14  0.3498542E-01
    1      -10.838947    -10.838947   1.000000   1.000000
    2      -10.820243    -10.820243   1.000000   1.000000
    3        0.825597      0.825597   1.000000   1.000000
    4        1.124554      1.124554   1.000000   1.000000
    5        2.214331      2.214331   1.000000   1.000000
    6        2.477445      2.477445   1.000000   1.000000
    7        2.603396      2.603396   1.000000   1.000000
    8        2.843049      2.843049   1.000000   1.000000
    9        5.802368      5.802368   1.000000   1.000000
   10        6.150948      6.150948   1.000000   1.000000
   11        6.402505      6.402505   1.000000   1.000000
   12        6.508261      6.508261   1.000000   1.000000
   13        6.755725      6.755725   1.000000   1.000000
   14        6.910634      6.910634   1.000000   1.000000
   15        7.227966      7.227966   1.000000   1.000000
   16        7.259299      7.259299   1.000000   1.000000
   17        8.877309      8.877309   0.000000   0.000000
   18        9.154389      9.154389   0.000000   0.000000
   19       16.038690     16.038690   0.000000   0.000000
   20       16.142159     16.142159   0.000000   0.000000
 
 -0.2857143E+00  0.1428571E+00  0.1160678E-15  0.3498542E-01
    1      -11.207654    -11.207654   1.000000   1.000000
    2      -10.732422    -10.732422   1.000000   1.000000
    3        1.067152      1.067152   1.000000   1.000000
    4        1.677993      1.677993   1.000000   1.000000
    5        1.770271      1.770271   1.000000   1.000000
    6        2.546499      2.546499   1.000000   1.000000
    7        2.802116      2.802116   1.000000   1.000000
    8        3.012265      3.012265   1.000000   1.000000
    9        5.848355      5.848355   1.000000   1.000000
   10        6.119540      6.119540   1.000000   1.000000
   11        6.357699      6.357699   1.000000   1.000000
   12        6.530221      6.530221   1.000000   1.000000
   13        6.636299      6.636299   1.000000   1.000000
   14        6.821130      6.821130   1.000000   1.000000
   15        7.164978      7.164978   1.000000   1.000000
   16        7.264592      7.264592   1.000000   1.000000
   17        8.700549      8.700549   0.000000   0.000000
   18        9.379793      9.379793   0.000000   0.000000
   19       14.355075     14.355075   0.000000   0.000000
   20       16.734595     16.734595   0.000000   0.000000
 
 -0.1428571E+00  0.1428571E+00 -0.3849753E-14  0.1749271E-01
    1      -11.730962    -11.730962   1.000000   1.000000
    2      -10.785127    -10.785127   1.000000   1.000000
    3        0.803096      0.803096   1.000000   1.000000
    4        2.132228      2.132228   1.000000   1.000000
    5        2.206407      2.206407   1.000000   1.000000
    6        2.664384      2.664384   1.000000   1.000000
    7        3.338980      3.338980   1.000000   1.000000
    8        3.783514      3.783514   1.000000   1.000000
    9        5.808608      5.808608   1.000000   1.000000
   10        6.107947      6.107947   1.000000   1.000000
   11        6.154084      6.154084   1.000000   1.000000
   12        6.313079      6.313079   1.000000   1.000000
   13        6.726357      6.726357   1.000000   1.000000
   14        6.795349      6.795349   1.000000   1.000000
   15        7.174842      7.174842   1.000000   1.000000
   16        7.262288      7.262288   1.000000   1.000000
   17        8.937545      8.937545   0.000000   0.000000
   18        9.032692      9.032692   0.000000   0.000000
   19       12.404851     12.404851   0.000000   0.000000
   20       16.463302     16.463302   0.000000   0.000000
 
  0.2857143E+00  0.2857143E+00  0.3332854E-15  0.1749271E-01
    1      -11.499660    -11.499660   1.000000   1.000000
    2      -10.858594    -10.858594   1.000000   1.000000
    3        1.045910      1.045910   1.000000   1.000000
    4        1.442531      1.442531   1.000000   1.000000
    5        2.374326      2.374326   1.000000   1.000000
    6        2.830014      2.830014   1.000000   1.000000
    7        3.172624      3.172624   1.000000   1.000000
    8        3.407353      3.407353   1.000000   1.000000
    9        5.562635      5.562635   1.000000   1.000000
   10        6.071778      6.071778   1.000000   1.000000
   11        6.188885      6.188885   1.000000   1.000000
   12        6.578174      6.578174   1.000000   1.000000
   13        6.667820      6.667820   1.000000   1.000000
   14        6.985220      6.985220   1.000000   1.000000
   15        7.260695      7.260695   1.000000   1.000000
   16        7.372226      7.372226   1.000000   1.000000
   17        9.006192      9.006192   0.000000   0.000000
   18        9.060503      9.060503   0.000000   0.000000
   19       12.813984     12.813984   0.000000   0.000000
   20       15.565562     15.565562   0.000000   0.000000
 
  0.4285714E+00  0.2857143E+00 -0.1736567E-14  0.3498542E-01
    1      -11.133995    -11.133995   1.000000   1.000000
    2      -10.807047    -10.807047   1.000000   1.000000
    3        0.708928      0.708928   1.000000   1.000000
    4        1.245741      1.245741   1.000000   1.000000
    5        2.571204      2.571204   1.000000   1.000000
    6        2.683327      2.683327   1.000000   1.000000
    7        2.781067      2.781067   1.000000   1.000000
    8        3.074043      3.074043   1.000000   1.000000
    9        5.715399      5.715399   1.000000   1.000000
   10        6.012743      6.012743   1.000000   1.000000
   11        6.275454      6.275454   1.000000   1.000000
   12        6.504930      6.504930   1.000000   1.000000
   13        6.673202      6.673202   1.000000   1.000000
   14        7.037366      7.037366   1.000000   1.000000
   15        7.152874      7.152874   1.000000   1.000000
   16        7.319380      7.319380   1.000000   1.000000
   17        8.861563      8.861563   0.000000   0.000000
   18        9.384784      9.384784   0.000000   0.000000
   19       14.137543     14.137543   0.000000   0.000000
   20       15.613555     15.613555   0.000000   0.000000
 
 -0.4285714E+00  0.2857143E+00 -0.5420927E-14  0.3498542E-01
    1      -10.836737    -10.836737   1.000000   1.000000
    2      -10.750435    -10.750435   1.000000   1.000000
    3        0.827307      0.827307   1.000000   1.000000
    4        1.368155      1.368155   1.000000   1.000000
    5        1.833416      1.833416   1.000000   1.000000
    6        2.241761      2.241761   1.000000   1.000000
    7        2.679081      2.679081   1.000000   1.000000
    8        2.862188      2.862188   1.000000   1.000000
    9        5.969096      5.969096   1.000000   1.000000
   10        6.097608      6.097608   1.000000   1.000000
   11        6.230220      6.230220   1.000000   1.000000
   12        6.573897      6.573897   1.000000   1.000000
   13        6.813764      6.813764   1.000000   1.000000
   14        7.035769      7.035769   1.000000   1.000000
   15        7.166245      7.166245   1.000000   1.000000
   16        7.258336      7.258336   1.000000   1.000000
   17        8.899486      8.899486   0.000000   0.000000
   18        9.162027      9.162027   0.000000   0.000000
   19       16.088586     16.088586   0.000000   0.000000
   20       16.500656     16.500656   0.000000   0.000000
 
 -0.2857143E+00  0.2857143E+00  0.1281495E-14  0.1749271E-01
    1      -10.865979    -10.865979   1.000000   1.000000
    2      -10.724678    -10.724678   1.000000   1.000000
    3        0.861626      0.861626   1.000000   1.000000
    4        1.669603      1.669603   1.000000   1.000000
    5        1.947448      1.947448   1.000000   1.000000
    6        2.214311      2.214311   1.000000   1.000000
    7        2.446214      2.446214   1.000000   1.000000
    8        2.612605      2.612605   1.000000   1.000000
    9        6.090074      6.090074   1.000000   1.000000
   10        6.170209      6.170209   1.000000   1.000000
   11        6.273410      6.273410   1.000000   1.000000
   12        6.533039      6.533039   1.000000   1.000000
   13        6.678359      6.678359   1.000000   1.000000
   14        6.866800      6.866800   1.000000   1.000000
   15        7.176705      7.176705   1.000000   1.000000
   16        7.215183      7.215183   1.000000   1.000000
   17        8.715118      8.715118   0.000000   0.000000
   18        9.441204      9.441204   0.000000   0.000000
   19       16.105168     16.105168   0.000000   0.000000
   20       16.816037     16.816037   0.000000   0.000000
 
  0.4285714E+00  0.4285714E+00  0.1443132E-14  0.1749271E-01
    1      -10.973711    -10.973711   1.000000   1.000000
    2      -10.831528    -10.831528   1.000000   1.000000
    3        0.047510      0.047510   1.000000   1.000000
    4        1.153520      1.153520   1.000000   1.000000
    5        2.523820      2.523820   1.000000   1.000000
    6        2.554630      2.554630   1.000000   1.000000
    7        3.479337      3.479337   1.000000   1.000000
    8        3.702023      3.702023   1.000000   1.000000
    9        4.982901      4.982901   1.000000   1.000000
   10        6.088227      6.088227   1.000000   1.000000
   11        6.274810      6.274810   1.000000   1.000000
   12        6.521915      6.521915   1.000000   1.000000
   13        6.633745      6.633745   1.000000   1.000000
   14        7.007729      7.007729   1.000000   1.000000
   15        7.174260      7.174260   1.000000   1.000000
   16        7.264824      7.264824   1.000000   1.000000
   17        9.468849      9.468849   0.000000   0.000000
   18        9.544213      9.544213   0.000000   0.000000
   19       13.615798     13.615798   0.000000   0.000000
   20       14.549709     14.549709   0.000000   0.000000
 
 -0.4285714E+00  0.4285714E+00 -0.2387142E-14  0.1749271E-01
    1      -10.858478    -10.858478   1.000000   1.000000
    2      -10.788879    -10.788879   1.000000   1.000000
    3        0.106074      0.106074   1.000000   1.000000
    4        1.265418      1.265418   1.000000   1.000000
    5        2.354628      2.354628   1.000000   1.000000
    6        2.523821      2.523821   1.000000   1.000000
    7        2.843218      2.843218   1.000000   1.000000
    8        3.475189      3.475189   1.000000   1.000000
    9        5.345851      5.345851   1.000000   1.000000
   10        6.115639      6.115639   1.000000   1.000000
   11        6.276776      6.276776   1.000000   1.000000
   12        6.610823      6.610823   1.000000   1.000000
   13        6.713314      6.713314   1.000000   1.000000
   14        7.073991      7.073991   1.000000   1.000000
   15        7.206224      7.206224   1.000000   1.000000
   16        7.228199      7.228199   1.000000   1.000000
   17        9.150582      9.150582   0.000000   0.000000
   18        9.478068      9.478068   0.000000   0.000000
   19       14.565768     14.565768   0.000000   0.000000
   20       14.966713     14.966713   0.000000   0.000000
 
  0.1428571E+00  0.1428571E+00  0.1428571E+00  0.5830904E-02
    1      -12.237301    -12.237301   1.000000   1.000000
    2      -10.974065    -10.974065   1.000000   1.000000
    3        0.051570      0.051570   1.000000   1.000000
    4        2.519248      2.519248   1.000000   1.000000
    5        2.519323      2.519323   1.000000   1.000000
    6        4.569673      4.569673   1.000000   1.000000
    7        4.747711      4.747711   1.000000   1.000000
    8        4.747749      4.747749   1.000000   1.000000
    9        5.593313      5.593313   1.000000   1.000000
   10        5.593356      5.593356   1.000000   1.000000
   11        5.844699      5.844699   1.000000   1.000000
   12        6.258801      6.258801   1.000000   1.000000
   13        6.258808      6.258808   1.000000   1.000000
   14        6.819713      6.819713   1.000000   1.000000
   15        6.819840      6.819840   1.000000   1.000000
   16        7.051433      7.051433   1.000000   1.000000
   17        9.418526      9.418526   0.000000   0.000000
   18        9.418824      9.418824   0.000000   0.000000
   19       10.049715     10.049715   0.000000   0.000000
   20       13.614623     13.614623   0.000000   0.000000
 
  0.2857143E+00  0.1428571E+00  0.1428571E+00  0.1749271E-01
    1      -11.999829    -11.999829   1.000000   1.000000
    2      -10.971347    -10.971347   1.000000   1.000000
    3        0.435686      0.435686   1.000000   1.000000
    4        2.456539      2.456539   1.000000   1.000000
    5        2.535813      2.535813   1.000000   1.000000
    6        3.062050      3.062050   1.000000   1.000000
    7        4.430269      4.430269   1.000000   1.000000
    8        4.437365      4.437365   1.000000   1.000000
    9        5.467921      5.467921   1.000000   1.000000
   10        5.897076      5.897076   1.000000   1.000000
   11        6.127063      6.127063   1.000000   1.000000
   12        6.199676      6.199676   1.000000   1.000000
   13        6.440070      6.440070   1.000000   1.000000
   14        6.832410      6.832410   1.000000   1.000000
   15        6.993202      6.993202   1.000000   1.000000
   16        7.122481      7.122481   1.000000   1.000000
   17        8.661939      8.661939   0.000000   0.000000
   18        9.469795      9.469795   0.000000   0.000000
   19       11.499139     11.499139   0.000000   0.000000
   20       14.615532     14.615532   0.000000   0.000000
 
  0.4285714E+00  0.1428571E+00  0.1428571E+00  0.1749271E-01
    1      -11.491186    -11.491186   1.000000   1.000000
    2      -10.866147    -10.866147   1.000000   1.000000
    3        0.858712      0.858712   1.000000   1.000000
    4        1.585129      1.585129   1.000000   1.000000
    5        2.209594      2.209594   1.000000   1.000000
    6        2.568487      2.568487   1.000000   1.000000
    7        3.763660      3.763660   1.000000   1.000000
    8        3.900230      3.900230   1.000000   1.000000
    9        5.309990      5.309990   1.000000   1.000000
   10        6.087808      6.087808   1.000000   1.000000
   11        6.181540      6.181540   1.000000   1.000000
   12        6.354053      6.354053   1.000000   1.000000
   13        6.570225      6.570225   1.000000   1.000000
   14        6.873371      6.873371   1.000000   1.000000
   15        7.118400      7.118400   1.000000   1.000000
   16        7.264391      7.264391   1.000000   1.000000
   17        8.492309      8.492309   0.000000   0.000000
   18        9.350498      9.350498   0.000000   0.000000
   19       13.677978     13.677978   0.000000   0.000000
   20       16.105678     16.105678   0.000000   0.000000
 
 -0.4285714E+00  0.1428571E+00  0.1428571E+00  0.1749271E-01
    1      -11.004303    -11.004303   1.000000   1.000000
    2      -10.806485    -10.806485   1.000000   1.000000
    3        0.582523      0.582523   1.000000   1.000000
    4        1.045910      1.045910   1.000000   1.000000
    5        2.192503      2.192503   1.000000   1.000000
    6        2.596290      2.596290   1.000000   1.000000
    7        3.034304      3.034304   1.000000   1.000000
    8        3.521806      3.521806   1.000000   1.000000
    9        5.333035      5.333035   1.000000   1.000000
   10        6.120482      6.120482   1.000000   1.000000
   11        6.322095      6.322095   1.000000   1.000000
   12        6.574240      6.574240   1.000000   1.000000
   13        6.814911      6.814911   1.000000   1.000000
   14        6.909314      6.909314   1.000000   1.000000
   15        7.175142      7.175142   1.000000   1.000000
   16        7.338035      7.338035   1.000000   1.000000
   17        8.889200      8.889200   0.000000   0.000000
   18        9.171142      9.171142   0.000000   0.000000
   19       15.010311     15.010311   0.000000   0.000000
   20       15.846203     15.846203   0.000000   0.000000
 
 -0.2857143E+00  0.1428571E+00  0.1428571E+00  0.1749271E-01
    1      -11.043175    -11.043175   1.000000   1.000000
    2      -10.771021    -10.771021   1.000000   1.000000
    3        0.592419      0.592419   1.000000   1.000000
    4        1.349135      1.349135   1.000000   1.000000
    5        2.151876      2.151876   1.000000   1.000000
    6        2.582853      2.582853   1.000000   1.000000
    7        2.706234      2.706234   1.000000   1.000000
    8        3.324732      3.324732   1.000000   1.000000
    9        5.500198      5.500198   1.000000   1.000000
   10        6.169754      6.169754   1.000000   1.000000
   11        6.310310      6.310310   1.000000   1.000000
   12        6.548189      6.548189   1.000000   1.000000
   13        6.869032      6.869032   1.000000   1.000000
   14        6.914983      6.914983   1.000000   1.000000
   15        7.268688      7.268688   1.000000   1.000000
   16        7.282529      7.282529   1.000000   1.000000
   17        8.999994      8.999994   0.000000   0.000000
   18        9.195483      9.195483   0.000000   0.000000
   19       14.492657     14.492657   0.000000   0.000000
   20       15.631859     15.631859   0.000000   0.000000
 
 -0.1428571E+00  0.1428571E+00  0.1428571E+00  0.1749271E-01
    1      -11.570685    -11.570685   1.000000   1.000000
    2      -10.777420    -10.777420   1.000000   1.000000
    3        1.080745      1.080745   1.000000   1.000000
    4        1.697199      1.697199   1.000000   1.000000
    5        1.993785      1.993785   1.000000   1.000000
    6        2.738440      2.738440   1.000000   1.000000
    7        3.187827      3.187827   1.000000   1.000000
    8        3.513545      3.513545   1.000000   1.000000
    9        5.641525      5.641525   1.000000   1.000000
   10        6.089419      6.089419   1.000000   1.000000
   11        6.244775      6.244775   1.000000   1.000000
   12        6.529606      6.529606   1.000000   1.000000
   13        6.667621      6.667621   1.000000   1.000000
   14        6.953420      6.953420   1.000000   1.000000
   15        7.209481      7.209481   1.000000   1.000000
   16        7.382895      7.382895   1.000000   1.000000
   17        8.946996      8.946996   0.000000   0.000000
   18        9.007786      9.007786   0.000000   0.000000
   19       12.808365     12.808365   0.000000   0.000000
   20       16.245469     16.245469   0.000000   0.000000
 
  0.2857143E+00  0.2857143E+00  0.1428571E+00  0.1749271E-01
    1      -11.942594    -11.942594   1.000000   1.000000
    2      -11.043322    -11.043322   1.000000   1.000000
    3        0.597653      0.597653   1.000000   1.000000
    4        2.456784      2.456784   1.000000   1.000000
    5        2.775813      2.775813   1.000000   1.000000
    6        3.035610      3.035610   1.000000   1.000000
    7        3.825133      3.825133   1.000000   1.000000
    8        4.100444      4.100444   1.000000   1.000000
    9        5.672625      5.672625   1.000000   1.000000
   10        5.784769      5.784769   1.000000   1.000000
   11        6.100166      6.100166   1.000000   1.000000
   12        6.574895      6.574895   1.000000   1.000000
   13        6.589929      6.589929   1.000000   1.000000
   14        6.665192      6.665192   1.000000   1.000000
   15        7.073320      7.073320   1.000000   1.000000
   16        7.368168      7.368168   1.000000   1.000000
   17        8.968719      8.968719   0.000000   0.000000
   18        9.041801      9.041801   0.000000   0.000000
   19       11.520012     11.520012   0.000000   0.000000
   20       14.494041     14.494041   0.000000   0.000000
 
  0.4285714E+00  0.2857143E+00  0.1428571E+00  0.3498542E-01
    1      -11.567641    -11.567641   1.000000   1.000000
    2      -10.978687    -10.978687   1.000000   1.000000
    3        0.926326      0.926326   1.000000   1.000000
    4        1.743930      1.743930   1.000000   1.000000
    5        2.568008      2.568008   1.000000   1.000000
    6        2.775713      2.775713   1.000000   1.000000
    7        3.384733      3.384733   1.000000   1.000000
    8        3.731401      3.731401   1.000000   1.000000
    9        5.622593      5.622593   1.000000   1.000000
   10        5.929102      5.929102   1.000000   1.000000
   11        6.168383      6.168383   1.000000   1.000000
   12        6.336199      6.336199   1.000000   1.000000
   13        6.753150      6.753150   1.000000   1.000000
   14        6.906929      6.906929   1.000000   1.000000
   15        7.099834      7.099834   1.000000   1.000000
   16        7.290793      7.290793   1.000000   1.000000
   17        8.671073      8.671073   0.000000   0.000000
   18        9.102700      9.102700   0.000000   0.000000
   19       13.178796     13.178796   0.000000   0.000000
   20       15.420334     15.420334   0.000000   0.000000
 
 -0.4285714E+00  0.2857143E+00  0.1428571E+00  0.3498542E-01
    1      -11.103109    -11.103109   1.000000   1.000000
    2      -10.836724    -10.836724   1.000000   1.000000
    3        0.824282      0.824282   1.000000   1.000000
    4        1.081577      1.081577   1.000000   1.000000
    5        2.265156      2.265156   1.000000   1.000000
    6        2.640767      2.640767   1.000000   1.000000