Automatically generated mesh
      44
Reciprocal lattice
    0.00000000000000    0.00000000000000    0.00000000000000             1
    0.14285714285715    0.00000000000000   -0.00000000000000             6
    0.28571428571428    0.00000000000000    0.00000000000000             6
    0.42857142857143    0.00000000000000    0.00000000000000             6
    0.14285714285715    0.14285714285715    0.00000000000000             6
    0.28571428571428    0.14285714285715   -0.00000000000000            12
    0.42857142857143    0.14285714285715   -0.00000000000000            12
   -0.42857142857143    0.14285714285715    0.00000000000000            12
   -0.28571428571428    0.14285714285715    0.00000000000000            12
   -0.14285714285715    0.14285714285715   -0.00000000000000             6
    0.28571428571428    0.28571428571428    0.00000000000000             6
    0.42857142857143    0.28571428571428   -0.00000000000000            12
   -0.42857142857143    0.28571428571428   -0.00000000000001            12
   -0.28571428571428    0.28571428571428    0.00000000000000             6
    0.42857142857143    0.42857142857143    0.00000000000000             6
   -0.42857142857143    0.42857142857143   -0.00000000000000             6
    0.14285714285715    0.14285714285715    0.14285714285714             2
    0.28571428571428    0.14285714285715    0.14285714285714             6
    0.42857142857143    0.14285714285715    0.14285714285714             6
   -0.42857142857143    0.14285714285715    0.14285714285714             6
   -0.28571428571428    0.14285714285715    0.14285714285715             6
   -0.14285714285714    0.14285714285715    0.14285714285714             6
    0.28571428571428    0.28571428571428    0.14285714285714             6
    0.42857142857143    0.28571428571428    0.14285714285714            12
   -0.42857142857143    0.28571428571428    0.14285714285714            12
   -0.28571428571428    0.28571428571428    0.14285714285715            12
   -0.14285714285715    0.28571428571428    0.14285714285714            12
    0.42857142857143    0.42857142857143    0.14285714285715             6
   -0.42857142857143    0.42857142857143    0.14285714285714            12
   -0.28571428571428    0.42857142857143    0.14285714285714            12
   -0.14285714285715    0.42857142857143    0.14285714285715            12
   -0.42857142857143   -0.42857142857143    0.14285714285714             6
   -0.28571428571428   -0.42857142857143    0.14285714285714            12
   -0.28571428571428   -0.28571428571428    0.14285714285714             6
    0.28571428571428    0.28571428571428    0.28571428571428             2
    0.42857142857143    0.28571428571428    0.28571428571429             6
   -0.42857142857143    0.28571428571428    0.28571428571429             6
   -0.28571428571428    0.28571428571428    0.28571428571429             6
    0.42857142857143    0.42857142857143    0.28571428571429             6
   -0.42857142857143    0.42857142857143    0.28571428571429            12
   -0.28571428571428    0.42857142857143    0.28571428571429            12
   -0.42857142857143   -0.42857142857143    0.28571428571429             6
    0.42857142857143    0.42857142857143    0.42857142857143             2
   -0.42857142857143    0.42857142857143    0.42857142857143             6
Tetrahedra
       175    0.00048590864917
        12         1         2         5        17
        12         2         5         6        18
        12         2         3         6        18
        12         2         5        17        18
        12         3         6         7        19
        12         3         4         7        19
        12         3         6        18        19
        12         4         7         8        20
        12         4         4         8        20
        12         4         7        19        20
        12         4         8         9        21
        12         3         4         9        21
        12         4         8        20        21
        12         3         9        10        22
        12         2         3        10        22
        12         3         9        21        22
        12         2         2         5        10
        12         1         2         2         5
        12         2         5        10        22
        12         5         6        11        23
        12         5         6        18        23
        12         5        17        18        23
        12         6        11        12        24
        12         6         7        12        24
        12         6         7        19        24
        12         6        11        23        24
        12         6        18        23        24
        12         6        18        19        24
        12         7        12        13        25
        12         7         8        13        25
        12         7         8        20        25
        12         7        12        24        25
        12         7        19        24        25
        12         7        19        20        25
        12         8        13        14        26
        12         8         9        14        26
        12         8         9        21        26
        12         8        13        25        26
        12         8        20        25        26
        12         8        20        21        26
        12         9         9        14        27
        12         9         9        10        27
        12         9        10        22        27
        12         9        14        26        27
        12         9        21        26        27
        12         9        21        22        27
        12         3         6         9        10
        12         2         3         6        10
        12         2         5         6        10
        12         6         9        10        27
        12         6        10        22        27
        12         5         6        10        22
        12        11        12        15        28
        12        11        12        24        28
        12        11        23        24        28
        12        12        15        16        29
        12        12        13        16        29
        12        12        13        25        29
        12        12        15        28        29
        12        12        24        28        29
        12        12        24        25        29
        12        13        13        16        30
        12        13        13        14        30
        12        13        14        26        30
        12        13        16        29        30
        12        13        25        29        30
        12        13        25        26        30
        12         8        13        14        31
        12         8         9        14        31
        12         9        14        27        31
        12        13        14        30        31
        12        14        26        30        31
        12        14        26        27        31
        12         4         7         8         9
        12         3         4         7         9
        12         3         6         7         9
        12         7         8         9        31
        12         7         9        27        31
        12         6         7         9        27
        12        15        15        16        32
        12        15        16        29        32
        12        15        28        29        32
        12        12        15        16        33
        12        12        13        16        33
        12        13        16        30        33
        12        15        16        32        33
        12        16        29        32        33
        12        16        29        30        33
        12         7        12        13        31
        12         7         8        13        31
        12         8        13        31        31
        12        12        13        31        33
        12        13        30        31        33
        12        13        30        31        31
        12         4         7         8         8
         6         4         4         8         8
        12         7         8         8        31
         6         8         8        31        31
        12        11        12        15        34
        12        12        15        33        34
        12        15        32        33        34
        12         6        11        12        27
        12         6         7        12        27
        12         7        12        27        31
        12        11        12        27        34
        12        12        27        33        34
        12        12        27        31        33
        12         5         6        11        22
        12         6        11        22        27
        12        11        22        27        34
        12        17        18        23        35
        12        18        23        24        36
        12        18        19        24        36
        12        18        23        35        36
        12        19        24        25        37
        12        19        20        25        37
        12        19        24        36        37
        12        20        25        26        38
        12        20        21        26        38
        12        20        25        37        38
        12        21        26        27        34
        12        21        22        27        34
        12        21        26        34        38
        12        23        24        28        39
        12        23        24        36        39
        12        23        35        36        39
        12        24        28        29        40
        12        24        25        29        40
        12        24        25        37        40
        12        24        28        39        40
        12        24        36        39        40
        12        24        36        37        40
        12        25        29        30        41
        12        25        26        30        41
        12        25        26        38        41
        12        25        29        40        41
        12        25        37        40        41
        12        25        37        38        41
        12        26        30        31        33
        12        26        27        31        33
        12        26        27        33        34
        12        26        30        33        41
        12        26        33        38        41
        12        26        33        34        38
        12        28        29        32        42
        12        28        29        40        42
        12        28        39        40        42
        12        29        32        33        41
        12        29        30        33        41
        12        29        30        41        41
        12        29        32        41        42
        12        29        40        41        42
        12        29        40        41        41
        12        30        30        31        33
         6        30        30        31        31
        12        30        30        33        41
         6        30        30        41        41
        12        32        33        34        38
        12        32        33        38        41
        12        32        38        41        42
        12        35        36        39        43
        12        36        39        40        44
        12        36        37        40        44
        12        36        39        43        44
        12        37        40        41        42
        12        37        38        41        42
        12        37        40        42        44
        12        39        40        42        44
        12        39        40        44        44
        12        39        43        44        44
        12        40        40        41        42
         6        40        40        41        41
        12        40        40        42        44
         6        40        40        44        44
         6        43        43        44        44
