 vasp.6.1.1 19Jun20 (build Jul 17 2020 22:48:28) complex                        
  
 executed on             LinuxIFC date 2020.12.07  18:53:30
 running on    4 total cores
 distrk:  each k-point on    4 cores,    1 groups
 distr:  one band on NCORE=   1 cores,    4 groups


--------------------------------------------------------------------------------------------------------


 INCAR:
 POTCAR:    PAW_PBE Ni 02Aug2007                  
 POTCAR:    PAW_PBE O 08Apr2002                   
 POTCAR:    PAW_PBE Ni 02Aug2007                  
   SHA256 =  0534bc51ca8003dfef23f56753fef9fdd3e22eac8d719fccacb59f3e6b7a69c7 Ni/POTCAR             
   COPYR  = (c) Copyright 02Aug2007 Georg Kresse                                                    
   COPYR  = This file is part of the software VASP. Any use, copying, and all other rights are regul
   COPYR  = If you do not have a valid VASP license, you may not use, copy or distribute this file. 
   VRHFIN =Ni:                                                                                      
   LEXCH  = PE                                                                                      
   EATOM  =  1077.6739 eV,   79.2068 Ry                                                             
                                                                                                    
   TITEL  = PAW_PBE Ni 02Aug2007                                                                    
   LULTRA =        F    use ultrasoft PP ?                                                          
   IUNSCR =        1    unscreen: 0-lin 1-nonlin 2-no                                               
   RPACOR =    2.000    partial core radius                                                         
   POMASS =   58.690; ZVAL   =   10.000    mass and valenz                                          
   RCORE  =    2.300    outmost cutoff radius                                                       
   RWIGS  =    2.430; RWIGS  =    1.286    wigner-seitz radius (au A)                               
   ENMAX  =  269.532; ENMIN  =  202.149 eV                                                          
   RCLOC  =    1.201    cutoff for local pot                                                        
   LCOR   =        T    correct aug charges                                                         
   LPAW   =        T    paw PP                                                                      
   EAUG   =  544.565                                                                                
   DEXC   =    0.000                                                                                
   RMAX   =    2.357    core radius for proj-oper                                                   
   RAUG   =    1.300    factor for augmentation sphere                                              
   RDEP   =    2.390    radius for radial grids                                                     
   RDEPT  =    1.838    core radius for aug-charge                                                  
                                                                                                    
   Atomic configuration                                                                             
    9 entries                                                                                       
     n  l   j            E        occ.                                                              
     1  0  0.50     -8206.4253   2.0000                                                             
     2  0  0.50      -976.1748   2.0000                                                             
     2  1  1.50      -839.0571   6.0000                                                             
     3  0  0.50      -105.9991   2.0000                                                             
     3  1  1.50       -66.4603   6.0000                                                             
     3  2  2.50        -4.6458   9.0000                                                             
     4  0  0.50        -4.4926   1.0000                                                             
     4  1  1.50        -4.0817   0.0000                                                             
     4  3  2.50        -1.3606   0.0000                                                             
   Description                                                                                      
     l       E           TYP  RCUT    TYP  RCUT                                                     
     2     -4.6457903     23  2.300                                                                 
     2     -6.0063729     23  2.300                                                                 
     0     -4.4925590     23  2.300                                                                 
     0      5.0102601     23  2.300                                                                 
     1     -2.7211652     23  2.300                                                                 
     1     16.5183231     23  2.300                                                                 
  local pseudopotential read in
  partial core-charges read in
  partial kinetic energy density read in
  atomic valenz-charges read in
  non local Contribution for L=           2  read in
    real space projection operators read in
  non local Contribution for L=           2  read in
    real space projection operators read in
  non local Contribution for L=           0  read in
    real space projection operators read in
  non local Contribution for L=           0  read in
    real space projection operators read in
  non local Contribution for L=           1  read in
    real space projection operators read in
  non local Contribution for L=           1  read in
    real space projection operators read in
    PAW grid and wavefunctions read in
 
   number of l-projection  operators is LMAX  =           6
   number of lm-projection operators is LMMAX =          18
 
 POTCAR:    PAW_PBE O 08Apr2002                   
   SHA256 =  818f92134a0a090dccd8ba1447fa70422a3b330e708bb4f08108d8ae51209ddf O/POTCAR              
   COPYR  = (c) Copyright 08Apr2002 Georg Kresse                                                    
   COPYR  = This file is part of the software VASP. Any use, copying, and all other rights are regul
   COPYR  = If you do not have a valid VASP license, you may not use, copy or distribute this file. 
   VRHFIN =O: s2p4                                                                                  
   LEXCH  = PE                                                                                      
   EATOM  =   432.3788 eV,   31.7789 Ry                                                             
                                                                                                    
   TITEL  = PAW_PBE O 08Apr2002                                                                     
   LULTRA =        F    use ultrasoft PP ?                                                          
   IUNSCR =        1    unscreen: 0-lin 1-nonlin 2-no                                               
   RPACOR =    1.200    partial core radius                                                         
   POMASS =   16.000; ZVAL   =    6.000    mass and valenz                                          
   RCORE  =    1.520    outmost cutoff radius                                                       
   RWIGS  =    1.550; RWIGS  =    0.820    wigner-seitz radius (au A)                               
   ENMAX  =  400.000; ENMIN  =  300.000 eV                                                          
   ICORE  =        2    local potential                                                             
   LCOR   =        T    correct aug charges                                                         
   LPAW   =        T    paw PP                                                                      
   EAUG   =  605.392                                                                                
   DEXC   =    0.000                                                                                
   RMAX   =    1.553    core radius for proj-oper                                                   
   RAUG   =    1.300    factor for augmentation sphere                                              
   RDEP   =    1.550    radius for radial grids                                                     
   RDEPT  =    1.329    core radius for aug-charge                                                  
                                                                                                    
   Atomic configuration                                                                             
    4 entries                                                                                       
     n  l   j            E        occ.                                                              
     1  0  0.50      -514.6923   2.0000                                                             
     2  0  0.50       -23.9615   2.0000                                                             
     2  1  0.50        -9.0305   4.0000                                                             
     3  2  1.50        -9.5241   0.0000                                                             
   Description                                                                                      
     l       E           TYP  RCUT    TYP  RCUT                                                     
     0    -23.9615318     23  1.200                                                                 
     0     -9.5240782     23  1.200                                                                 
     1     -9.0304911     23  1.520                                                                 
     1      8.1634956     23  1.520                                                                 
     2     -9.5240782      7  1.500                                                                 
  local pseudopotential read in
  partial core-charges read in
  partial kinetic energy density read in
  kinetic energy density of atom read in
  atomic valenz-charges read in
  non local Contribution for L=           0  read in
    real space projection operators read in
  non local Contribution for L=           0  read in
    real space projection operators read in
  non local Contribution for L=           1  read in
    real space projection operators read in
  non local Contribution for L=           1  read in
    real space projection operators read in
    PAW grid and wavefunctions read in
 
   number of l-projection  operators is LMAX  =           4
   number of lm-projection operators is LMMAX =           8
 
  PAW_PBE Ni 02Aug2007                  :
 energy of atom  1       EATOM=-1077.6739
 kinetic energy error for atom=    0.0101 (will be added to EATOM!!)
  PAW_PBE O 08Apr2002                   :
 energy of atom  2       EATOM= -432.3788
 kinetic energy error for atom=    0.1156 (will be added to EATOM!!)
 
 
 POSCAR: NiO-AFM
  positions in cartesian coordinates
  No initial velocities read in
 exchange correlation table for  LEXCH =        8
   RHO(1)=    0.500       N(1)  =     2000
   RHO(2)=  100.500       N(2)  =     4000
 


--------------------------------------------------------------------------------------------------------


 ion  position               nearest neighbor table
   1  0.000  0.000  0.000-   4 2.08   4 2.08   4 2.08   3 2.08   3 2.08   3 2.08   2 2.95   2 2.95
                             2 2.95   2 2.95   2 2.95   2 2.95
   2  0.500  0.500  0.500-   3 2.08   3 2.08   3 2.08   4 2.08   4 2.08   4 2.08   1 2.95   1 2.95
                             1 2.95   1 2.95   1 2.95   1 2.95
   3  0.250  0.250  0.250-   1 2.08   1 2.08   1 2.08   2 2.08   2 2.08   2 2.08
   4  0.750  0.750  0.750-   2 2.08   2 2.08   2 2.08   1 2.08   1 2.08   1 2.08
 
  LATTYP: Found a trigonal (rhomboedric) cell.
 ALAT       =     5.1071861137
 COS(alpha) =     0.8333333333
  
  Lattice vectors:
  
 A1 = (   4.1700000000,   2.0850000000,   2.0850000000)
 A2 = (   2.0850000000,   4.1700000000,   2.0850000000)
 A3 = (   2.0850000000,   2.0850000000,   4.1700000000)


Analysis of symmetry for initial positions (statically):
=====================================================================
 Subroutine PRICEL returns following result:
 
  LATTYP: Found a face centered cubic cell.
 ALAT       =     4.1700000000
  
  Lattice vectors:
  
 A1 = (   2.0850000000,   0.0000000000,  -2.0850000000)
 A2 = (   0.0000000000,   2.0850000000,  -2.0850000000)
 A3 = (   2.0850000000,   2.0850000000,   0.0000000000)
 
   2 primitive cells build up your supercell.
 

 Routine SETGRP: Setting up the symmetry group for a 
 trigonal (rhombohedral) supercell.


 Subroutine GETGRP returns: Found 12 space group operations
 (whereof 12 operations were pure point group operations)
 out of a pool of 12 trial point group operations.


The static configuration has the point symmetry D_3d.


Analysis of symmetry for dynamics (positions and initial velocities):
=====================================================================
 Subroutine PRICEL returns following result:
 
  LATTYP: Found a face centered cubic cell.
 ALAT       =     4.1700000000
  
  Lattice vectors:
  
 A1 = (   2.0850000000,   0.0000000000,  -2.0850000000)
 A2 = (   0.0000000000,   2.0850000000,  -2.0850000000)
 A3 = (   2.0850000000,   2.0850000000,   0.0000000000)
 
   2 primitive cells build up your supercell.
 

 Routine SETGRP: Setting up the symmetry group for a 
 trigonal (rhombohedral) supercell.


 Subroutine GETGRP returns: Found 12 space group operations
 (whereof 12 operations were pure point group operations)
 out of a pool of 12 trial point group operations.


The dynamic configuration has the point symmetry D_3d.


Analysis of structural, dynamic, and magnetic symmetry:
=====================================================================
 Subroutine PRICEL returns following result:
 
  LATTYP: Found a face centered cubic cell.
 ALAT       =     4.1700000000
  
  Lattice vectors:
  
 A1 = (   2.0850000000,   0.0000000000,  -2.0850000000)
 A2 = (   0.0000000000,   2.0850000000,  -2.0850000000)
 A3 = (   2.0850000000,   2.0850000000,   0.0000000000)
 
   2 primitive cells build up your supercell.
 

 Routine SETGRP: Setting up the symmetry group for a 
 trigonal (rhombohedral) supercell.


 Subroutine GETGRP returns: Found 12 space group operations
 (whereof 12 operations were pure point group operations)
 out of a pool of 12 trial point group operations.


The magnetic configuration has the point symmetry D_3d.


 Subroutine INISYM returns: Found 12 space group operations
 (whereof 12 operations are pure point group operations),
 and found     2 'primitive' translations


----------------------------------------------------------------------------------------

                                     Primitive cell                                     

  volume of cell :      18.1279

  direct lattice vectors                    reciprocal lattice vectors
     2.085000000  0.000000000 -2.085000000     0.239808153 -0.239808153 -0.239808153
     0.000000000  2.085000000 -2.085000000    -0.239808153  0.239808153 -0.239808153
     2.085000000  2.085000000  0.000000000     0.239808153  0.239808153  0.239808153

  length of vectors
     2.948635278  2.948635278  2.948635278     0.415359906  0.415359906  0.415359906

  position of ions in fractional coordinates (direct lattice)
     0.000000000  0.000000000  0.000000000
     0.500000000  0.500000000  0.500000000

  ion indices of the primitive-cell ions
   primitive index   ion index
                 1           1
                 2           3

----------------------------------------------------------------------------------------

 
 

Automatic generation of k-mesh.
 generate k-points for:    7    7    7
Space group operators:
 irot       det(A)        alpha          n_x          n_y          n_z        tau_x        tau_y        tau_z
    1     1.000000     0.000000     1.000000     0.000000     0.000000     0.000000     0.000000     0.000000
    2    -1.000000     0.000000     1.000000     0.000000     0.000000     0.000000     0.000000     0.000000
    3     1.000000   180.000000     0.000000     0.707107    -0.707107     0.000000     0.000000     0.000000
    4    -1.000000   180.000000     0.000000     0.707107    -0.707107     0.000000     0.000000     0.000000
    5     1.000000   120.000000    -0.577350    -0.577350    -0.577350     0.000000     0.000000     0.000000
    6    -1.000000   120.000000    -0.577350    -0.577350    -0.577350     0.000000     0.000000     0.000000
    7     1.000000   180.000000    -0.707107     0.707107     0.000000     0.000000     0.000000     0.000000
    8    -1.000000   180.000000    -0.707107     0.707107     0.000000     0.000000     0.000000     0.000000
    9     1.000000   120.000000     0.577350     0.577350     0.577350     0.000000     0.000000     0.000000
   10    -1.000000   120.000000     0.577350     0.577350     0.577350     0.000000     0.000000     0.000000
   11     1.000000   180.000000     0.707107     0.000000    -0.707107     0.000000     0.000000     0.000000
   12    -1.000000   180.000000     0.707107     0.000000    -0.707107     0.000000     0.000000     0.000000
 TETIRR: Found    175 inequivalent tetrahedra from     2058
 
 Subroutine IBZKPT returns following result:
 ===========================================
 
 Found     44 irreducible k-points:
 
 Following reciprocal coordinates:
            Coordinates               Weight
  0.000000  0.000000  0.000000      1.000000
  0.142857  0.000000 -0.000000      6.000000
  0.285714  0.000000  0.000000      6.000000
  0.428571  0.000000  0.000000      6.000000
  0.142857  0.142857  0.000000      6.000000
  0.285714  0.142857 -0.000000     12.000000
  0.428571  0.142857 -0.000000     12.000000
 -0.428571  0.142857  0.000000     12.000000
 -0.285714  0.142857  0.000000     12.000000
 -0.142857  0.142857 -0.000000      6.000000
  0.285714  0.285714  0.000000      6.000000
  0.428571  0.285714 -0.000000     12.000000
 -0.428571  0.285714 -0.000000     12.000000
 -0.285714  0.285714  0.000000      6.000000
  0.428571  0.428571  0.000000      6.000000
 -0.428571  0.428571 -0.000000      6.000000
  0.142857  0.142857  0.142857      2.000000
  0.285714  0.142857  0.142857      6.000000
  0.428571  0.142857  0.142857      6.000000
 -0.428571  0.142857  0.142857      6.000000
 -0.285714  0.142857  0.142857      6.000000
 -0.142857  0.142857  0.142857      6.000000
  0.285714  0.285714  0.142857      6.000000
  0.428571  0.285714  0.142857     12.000000
 -0.428571  0.285714  0.142857     12.000000
 -0.285714  0.285714  0.142857     12.000000
 -0.142857  0.285714  0.142857     12.000000
  0.428571  0.428571  0.142857      6.000000
 -0.428571  0.428571  0.142857     12.000000
 -0.285714  0.428571  0.142857     12.000000
 -0.142857  0.428571  0.142857     12.000000
 -0.428571 -0.428571  0.142857      6.000000
 -0.285714 -0.428571  0.142857     12.000000
 -0.285714 -0.285714  0.142857      6.000000
  0.285714  0.285714  0.285714      2.000000
  0.428571  0.285714  0.285714      6.000000
 -0.428571  0.285714  0.285714      6.000000
 -0.285714  0.285714  0.285714      6.000000
  0.428571  0.428571  0.285714      6.000000
 -0.428571  0.428571  0.285714     12.000000
 -0.285714  0.428571  0.285714     12.000000
 -0.428571 -0.428571  0.285714      6.000000
  0.428571  0.428571  0.428571      2.000000
 -0.428571  0.428571  0.428571      6.000000
 
 Following cartesian coordinates:
            Coordinates               Weight
  0.000000  0.000000  0.000000      1.000000
  0.214286 -0.071429 -0.071429      6.000000
  0.428571 -0.142857 -0.142857      6.000000
  0.642857 -0.214286 -0.214286      6.000000
  0.142857  0.142857 -0.142857      6.000000
  0.357143  0.071429 -0.214286     12.000000
  0.571429  0.000000 -0.285714     12.000000
 -0.714286  0.428571  0.142857     12.000000
 -0.500000  0.357143  0.071429     12.000000
 -0.285714  0.285714 -0.000000      6.000000
  0.285714  0.285714 -0.285714      6.000000
  0.500000  0.214286 -0.357143     12.000000
 -0.785714  0.642857  0.071429     12.000000
 -0.571429  0.571429  0.000000      6.000000
  0.428571  0.428571 -0.428571      6.000000
 -0.857143  0.857143 -0.000000      6.000000
  0.071429  0.071429  0.071429      2.000000
  0.285714  0.000000  0.000000      6.000000
  0.500000 -0.071429 -0.071429      6.000000
 -0.785714  0.357143  0.357143      6.000000
 -0.571429  0.285714  0.285714      6.000000
 -0.357143  0.214286  0.214286      6.000000
  0.214286  0.214286 -0.071429      6.000000
  0.428571  0.142857 -0.142857     12.000000
 -0.857143  0.571429  0.285714     12.000000
 -0.642857  0.500000  0.214286     12.000000
 -0.428571  0.428571  0.142857     12.000000
  0.357143  0.357143 -0.214286      6.000000
 -0.928571  0.785714  0.214286     12.000000
 -0.714286  0.714286  0.142857     12.000000
 -0.500000  0.642857  0.071429     12.000000
 -0.500000 -0.500000  0.642857      6.000000
 -0.285714 -0.571429  0.571429     12.000000
 -0.357143 -0.357143  0.500000      6.000000
  0.142857  0.142857  0.142857      2.000000
  0.357143  0.071429  0.071429      6.000000
 -0.928571  0.500000  0.500000      6.000000
 -0.714286  0.428571  0.428571      6.000000
  0.285714  0.285714  0.000000      6.000000
 -1.000000  0.714286  0.428571     12.000000
 -0.785714  0.642857  0.357143     12.000000
 -0.571429 -0.571429  0.857143      6.000000
  0.214286  0.214286  0.214286      2.000000
 -1.071429  0.642857  0.642857      6.000000
 
 
 Subroutine IBZKPT_HF returns following result:
 ==============================================
 
 Found    343 k-points in 1st BZ
 the following    343 k-points will be used (e.g. in the exchange kernel)
 Following reciprocal coordinates:   # in IRBZ
  0.000000  0.000000  0.000000    0.00291545   1 t-inv F
  0.142857  0.000000 -0.000000    0.00291545   2 t-inv F
  0.285714  0.000000  0.000000    0.00291545   3 t-inv F
  0.428571  0.000000  0.000000    0.00291545   4 t-inv F
  0.142857  0.142857  0.000000    0.00291545   5 t-inv F
  0.285714  0.142857 -0.000000    0.00291545   6 t-inv F
  0.428571  0.142857 -0.000000    0.00291545   7 t-inv F
 -0.428571  0.142857  0.000000    0.00291545   8 t-inv F
 -0.285714  0.142857  0.000000    0.00291545   9 t-inv F
 -0.142857  0.142857 -0.000000    0.00291545  10 t-inv F
  0.285714  0.285714  0.000000    0.00291545  11 t-inv F
  0.428571  0.285714 -0.000000    0.00291545  12 t-inv F
 -0.428571  0.285714 -0.000000    0.00291545  13 t-inv F
 -0.285714  0.285714  0.000000    0.00291545  14 t-inv F
  0.428571  0.428571  0.000000    0.00291545  15 t-inv F
 -0.428571  0.428571 -0.000000    0.00291545  16 t-inv F
  0.142857  0.142857  0.142857    0.00291545  17 t-inv F
  0.285714  0.142857  0.142857    0.00291545  18 t-inv F
  0.428571  0.142857  0.142857    0.00291545  19 t-inv F
 -0.428571  0.142857  0.142857    0.00291545  20 t-inv F
 -0.285714  0.142857  0.142857    0.00291545  21 t-inv F
 -0.142857  0.142857  0.142857    0.00291545  22 t-inv F
  0.285714  0.285714  0.142857    0.00291545  23 t-inv F
  0.428571  0.285714  0.142857    0.00291545  24 t-inv F
 -0.428571  0.285714  0.142857    0.00291545  25 t-inv F
 -0.285714  0.285714  0.142857    0.00291545  26 t-inv F
 -0.142857  0.285714  0.142857    0.00291545  27 t-inv F
  0.428571  0.428571  0.142857    0.00291545  28 t-inv F
 -0.428571  0.428571  0.142857    0.00291545  29 t-inv F
 -0.285714  0.428571  0.142857    0.00291545  30 t-inv F
 -0.142857  0.428571  0.142857    0.00291545  31 t-inv F
 -0.428571 -0.428571  0.142857    0.00291545  32 t-inv F
 -0.285714 -0.428571  0.142857    0.00291545  33 t-inv F
 -0.285714 -0.285714  0.142857    0.00291545  34 t-inv F
  0.285714  0.285714  0.285714    0.00291545  35 t-inv F
  0.428571  0.285714  0.285714    0.00291545  36 t-inv F
 -0.428571  0.285714  0.285714    0.00291545  37 t-inv F
 -0.285714  0.285714  0.285714    0.00291545  38 t-inv F
  0.428571  0.428571  0.285714    0.00291545  39 t-inv F
 -0.428571  0.428571  0.285714    0.00291545  40 t-inv F
 -0.285714  0.428571  0.285714    0.00291545  41 t-inv F
 -0.428571 -0.428571  0.285714    0.00291545  42 t-inv F
  0.428571  0.428571  0.428571    0.00291545  43 t-inv F
 -0.428571  0.428571  0.428571    0.00291545  44 t-inv F
 -0.142857 -0.000000  0.000000    0.00291545   2 t-inv F
 -0.000000  0.142857  0.000000    0.00291545   2 t-inv F
  0.000000 -0.142857 -0.000000    0.00291545   2 t-inv F
  0.000000 -0.000000  0.142857    0.00291545   2 t-inv F
 -0.000000  0.000000 -0.142857    0.00291545   2 t-inv F
 -0.285714 -0.000000 -0.000000    0.00291545   3 t-inv F
  0.000000  0.285714  0.000000    0.00291545   3 t-inv F
 -0.000000 -0.285714 -0.000000    0.00291545   3 t-inv F
  0.000000  0.000000  0.285714    0.00291545   3 t-inv F
 -0.000000 -0.000000 -0.285714    0.00291545   3 t-inv F
 -0.428571 -0.000000 -0.000000    0.00291545   4 t-inv F
  0.000000  0.428571  0.000000    0.00291545   4 t-inv F
 -0.000000 -0.428571 -0.000000    0.00291545   4 t-inv F
  0.000000  0.000000  0.428571    0.00291545   4 t-inv F
 -0.000000 -0.000000 -0.428571    0.00291545   4 t-inv F
 -0.142857 -0.142857 -0.000000    0.00291545   5 t-inv F
 -0.142857 -0.000000 -0.142857    0.00291545   5 t-inv F
  0.142857  0.000000  0.142857    0.00291545   5 t-inv F
  0.000000  0.142857  0.142857    0.00291545   5 t-inv F
 -0.000000 -0.142857 -0.142857    0.00291545   5 t-inv F
 -0.285714 -0.142857  0.000000    0.00291545   6 t-inv F
 -0.285714  0.000000 -0.142857    0.00291545   6 t-inv F
  0.285714 -0.000000  0.142857    0.00291545   6 t-inv F
 -0.000000  0.285714  0.142857    0.00291545   6 t-inv F
  0.000000 -0.285714 -0.142857    0.00291545   6 t-inv F
 -0.142857 -0.285714  0.000000    0.00291545   6 t-inv F
  0.142857  0.285714 -0.000000    0.00291545   6 t-inv F
  0.142857 -0.000000  0.285714    0.00291545   6 t-inv F
 -0.142857  0.000000 -0.285714    0.00291545   6 t-inv F
  0.000000 -0.142857 -0.285714    0.00291545   6 t-inv F
 -0.000000  0.142857  0.285714    0.00291545   6 t-inv F
 -0.428571 -0.142857  0.000000    0.00291545   7 t-inv F
 -0.428571  0.000000 -0.142857    0.00291545   7 t-inv F
  0.428571 -0.000000  0.142857    0.00291545   7 t-inv F
 -0.000000  0.428571  0.142857    0.00291545   7 t-inv F
  0.000000 -0.428571 -0.142857    0.00291545   7 t-inv F
 -0.142857 -0.428571  0.000000    0.00291545   7 t-inv F
  0.142857  0.428571 -0.000000    0.00291545   7 t-inv F
  0.142857 -0.000000  0.428571    0.00291545   7 t-inv F
 -0.142857  0.000000 -0.428571    0.00291545   7 t-inv F
  0.000000 -0.142857 -0.428571    0.00291545   7 t-inv F
 -0.000000  0.142857  0.428571    0.00291545   7 t-inv F
  0.428571 -0.142857 -0.000000    0.00291545   8 t-inv F
  0.428571 -0.000000 -0.142857    0.00291545   8 t-inv F
 -0.428571  0.000000  0.142857    0.00291545   8 t-inv F
  0.000000 -0.428571  0.142857    0.00291545   8 t-inv F
 -0.000000  0.428571 -0.142857    0.00291545   8 t-inv F
 -0.142857  0.428571 -0.000000    0.00291545   8 t-inv F
  0.142857 -0.428571  0.000000    0.00291545   8 t-inv F
  0.142857  0.000000 -0.428571    0.00291545   8 t-inv F
 -0.142857 -0.000000  0.428571    0.00291545   8 t-inv F
 -0.000000 -0.142857  0.428571    0.00291545   8 t-inv F
  0.000000  0.142857 -0.428571    0.00291545   8 t-inv F
  0.285714 -0.142857 -0.000000    0.00291545   9 t-inv F
  0.285714 -0.000000 -0.142857    0.00291545   9 t-inv F
 -0.285714  0.000000  0.142857    0.00291545   9 t-inv F
  0.000000 -0.285714  0.142857    0.00291545   9 t-inv F
 -0.000000  0.285714 -0.142857    0.00291545   9 t-inv F
 -0.142857  0.285714 -0.000000    0.00291545   9 t-inv F
  0.142857 -0.285714  0.000000    0.00291545   9 t-inv F
  0.142857  0.000000 -0.285714    0.00291545   9 t-inv F
 -0.142857 -0.000000  0.285714    0.00291545   9 t-inv F
 -0.000000 -0.142857  0.285714    0.00291545   9 t-inv F
  0.000000  0.142857 -0.285714    0.00291545   9 t-inv F
  0.142857 -0.142857  0.000000    0.00291545  10 t-inv F
  0.142857  0.000000 -0.142857    0.00291545  10 t-inv F
 -0.142857 -0.000000  0.142857    0.00291545  10 t-inv F
 -0.000000 -0.142857  0.142857    0.00291545  10 t-inv F
  0.000000  0.142857 -0.142857    0.00291545  10 t-inv F
 -0.285714 -0.285714 -0.000000    0.00291545  11 t-inv F
 -0.285714 -0.000000 -0.285714    0.00291545  11 t-inv F
  0.285714  0.000000  0.285714    0.00291545  11 t-inv F
  0.000000  0.285714  0.285714    0.00291545  11 t-inv F
 -0.000000 -0.285714 -0.285714    0.00291545  11 t-inv F
 -0.428571 -0.285714  0.000000    0.00291545  12 t-inv F
 -0.428571  0.000000 -0.285714    0.00291545  12 t-inv F
  0.428571 -0.000000  0.285714    0.00291545  12 t-inv F
 -0.000000  0.428571  0.285714    0.00291545  12 t-inv F
  0.000000 -0.428571 -0.285714    0.00291545  12 t-inv F
 -0.285714 -0.428571  0.000000    0.00291545  12 t-inv F
  0.285714  0.428571 -0.000000    0.00291545  12 t-inv F
  0.285714 -0.000000  0.428571    0.00291545  12 t-inv F
 -0.285714  0.000000 -0.428571    0.00291545  12 t-inv F
  0.000000 -0.285714 -0.428571    0.00291545  12 t-inv F
 -0.000000  0.285714  0.428571    0.00291545  12 t-inv F
  0.428571 -0.285714  0.000000    0.00291545  13 t-inv F
  0.428571  0.000000 -0.285714    0.00291545  13 t-inv F
 -0.428571 -0.000000  0.285714    0.00291545  13 t-inv F
 -0.000000 -0.428571  0.285714    0.00291545  13 t-inv F
  0.000000  0.428571 -0.285714    0.00291545  13 t-inv F
 -0.285714  0.428571  0.000000    0.00291545  13 t-inv F
  0.285714 -0.428571 -0.000000    0.00291545  13 t-inv F
  0.285714 -0.000000 -0.428571    0.00291545  13 t-inv F
 -0.285714  0.000000  0.428571    0.00291545  13 t-inv F
  0.000000 -0.285714  0.428571    0.00291545  13 t-inv F
 -0.000000  0.285714 -0.428571    0.00291545  13 t-inv F
  0.285714 -0.285714 -0.000000    0.00291545  14 t-inv F
  0.285714 -0.000000 -0.285714    0.00291545  14 t-inv F
 -0.285714  0.000000  0.285714    0.00291545  14 t-inv F
  0.000000 -0.285714  0.285714    0.00291545  14 t-inv F
 -0.000000  0.285714 -0.285714    0.00291545  14 t-inv F
 -0.428571 -0.428571 -0.000000    0.00291545  15 t-inv F
 -0.428571 -0.000000 -0.428571    0.00291545  15 t-inv F
  0.428571  0.000000  0.428571    0.00291545  15 t-inv F
  0.000000  0.428571  0.428571    0.00291545  15 t-inv F
 -0.000000 -0.428571 -0.428571    0.00291545  15 t-inv F
  0.428571 -0.428571  0.000000    0.00291545  16 t-inv F
  0.428571  0.000000 -0.428571    0.00291545  16 t-inv F
 -0.428571 -0.000000  0.428571    0.00291545  16 t-inv F
 -0.000000 -0.428571  0.428571    0.00291545  16 t-inv F
  0.000000  0.428571 -0.428571    0.00291545  16 t-inv F
 -0.142857 -0.142857 -0.142857    0.00291545  17 t-inv F
 -0.285714 -0.142857 -0.142857    0.00291545  18 t-inv F
  0.142857  0.285714  0.142857    0.00291545  18 t-inv F
 -0.142857 -0.285714 -0.142857    0.00291545  18 t-inv F
  0.142857  0.142857  0.285714    0.00291545  18 t-inv F
 -0.142857 -0.142857 -0.285714    0.00291545  18 t-inv F
 -0.428571 -0.142857 -0.142857    0.00291545  19 t-inv F
  0.142857  0.428571  0.142857    0.00291545  19 t-inv F
 -0.142857 -0.428571 -0.142857    0.00291545  19 t-inv F
  0.142857  0.142857  0.428571    0.00291545  19 t-inv F
 -0.142857 -0.142857 -0.428571    0.00291545  19 t-inv F
  0.428571 -0.142857 -0.142857    0.00291545  20 t-inv F
  0.142857 -0.428571  0.142857    0.00291545  20 t-inv F
 -0.142857  0.428571 -0.142857    0.00291545  20 t-inv F
  0.142857  0.142857 -0.428571    0.00291545  20 t-inv F
 -0.142857 -0.142857  0.428571    0.00291545  20 t-inv F
  0.285714 -0.142857 -0.142857    0.00291545  21 t-inv F
  0.142857 -0.285714  0.142857    0.00291545  21 t-inv F
 -0.142857  0.285714 -0.142857    0.00291545  21 t-inv F
  0.142857  0.142857 -0.285714    0.00291545  21 t-inv F
 -0.142857 -0.142857  0.285714    0.00291545  21 t-inv F
  0.142857 -0.142857 -0.142857    0.00291545  22 t-inv F
  0.142857 -0.142857  0.142857    0.00291545  22 t-inv F
 -0.142857  0.142857 -0.142857    0.00291545  22 t-inv F
  0.142857  0.142857 -0.142857    0.00291545  22 t-inv F
 -0.142857 -0.142857  0.142857    0.00291545  22 t-inv F
 -0.285714 -0.285714 -0.142857    0.00291545  23 t-inv F
 -0.285714 -0.142857 -0.285714    0.00291545  23 t-inv F
  0.285714  0.142857  0.285714    0.00291545  23 t-inv F
  0.142857  0.285714  0.285714    0.00291545  23 t-inv F
 -0.142857 -0.285714 -0.285714    0.00291545  23 t-inv F
 -0.428571 -0.285714 -0.142857    0.00291545  24 t-inv F
 -0.428571 -0.142857 -0.285714    0.00291545  24 t-inv F
  0.428571  0.142857  0.285714    0.00291545  24 t-inv F
  0.142857  0.428571  0.285714    0.00291545  24 t-inv F
 -0.142857 -0.428571 -0.285714    0.00291545  24 t-inv F
 -0.285714 -0.428571 -0.142857    0.00291545  24 t-inv F
  0.285714  0.428571  0.142857    0.00291545  24 t-inv F
  0.285714  0.142857  0.428571    0.00291545  24 t-inv F
 -0.285714 -0.142857 -0.428571    0.00291545  24 t-inv F
 -0.142857 -0.285714 -0.428571    0.00291545  24 t-inv F
  0.142857  0.285714  0.428571    0.00291545  24 t-inv F
  0.428571 -0.285714 -0.142857    0.00291545  25 t-inv F
  0.428571 -0.142857 -0.285714    0.00291545  25 t-inv F
 -0.428571  0.142857  0.285714    0.00291545  25 t-inv F
  0.142857 -0.428571  0.285714    0.00291545  25 t-inv F
 -0.142857  0.428571 -0.285714    0.00291545  25 t-inv F
 -0.285714  0.428571 -0.142857    0.00291545  25 t-inv F
  0.285714 -0.428571  0.142857    0.00291545  25 t-inv F
  0.285714  0.142857 -0.428571    0.00291545  25 t-inv F
 -0.285714 -0.142857  0.428571    0.00291545  25 t-inv F
 -0.142857 -0.285714  0.428571    0.00291545  25 t-inv F
  0.142857  0.285714 -0.428571    0.00291545  25 t-inv F
  0.285714 -0.285714 -0.142857    0.00291545  26 t-inv F
  0.285714 -0.142857 -0.285714    0.00291545  26 t-inv F
 -0.285714  0.142857  0.285714    0.00291545  26 t-inv F
  0.142857 -0.285714  0.285714    0.00291545  26 t-inv F
 -0.142857  0.285714 -0.285714    0.00291545  26 t-inv F
 -0.285714  0.285714 -0.142857    0.00291545  26 t-inv F
  0.285714 -0.285714  0.142857    0.00291545  26 t-inv F
  0.285714  0.142857 -0.285714    0.00291545  26 t-inv F
 -0.285714 -0.142857  0.285714    0.00291545  26 t-inv F
 -0.142857 -0.285714  0.285714    0.00291545  26 t-inv F
  0.142857  0.285714 -0.285714    0.00291545  26 t-inv F
  0.142857 -0.285714 -0.142857    0.00291545  27 t-inv F
  0.142857 -0.142857 -0.285714    0.00291545  27 t-inv F
 -0.142857  0.142857  0.285714    0.00291545  27 t-inv F
  0.142857 -0.142857  0.285714    0.00291545  27 t-inv F
 -0.142857  0.142857 -0.285714    0.00291545  27 t-inv F
 -0.285714  0.142857 -0.142857    0.00291545  27 t-inv F
  0.285714 -0.142857  0.142857    0.00291545  27 t-inv F
  0.285714  0.142857 -0.142857    0.00291545  27 t-inv F
 -0.285714 -0.142857  0.142857    0.00291545  27 t-inv F
 -0.142857 -0.285714  0.142857    0.00291545  27 t-inv F
  0.142857  0.285714 -0.142857    0.00291545  27 t-inv F
 -0.428571 -0.428571 -0.142857    0.00291545  28 t-inv F
 -0.428571 -0.142857 -0.428571    0.00291545  28 t-inv F
  0.428571  0.142857  0.428571    0.00291545  28 t-inv F
  0.142857  0.428571  0.428571    0.00291545  28 t-inv F
 -0.142857 -0.428571 -0.428571    0.00291545  28 t-inv F
  0.428571 -0.428571 -0.142857    0.00291545  29 t-inv F
  0.428571 -0.142857 -0.428571    0.00291545  29 t-inv F
 -0.428571  0.142857  0.428571    0.00291545  29 t-inv F
  0.142857 -0.428571  0.428571    0.00291545  29 t-inv F
 -0.142857  0.428571 -0.428571    0.00291545  29 t-inv F
 -0.428571  0.428571 -0.142857    0.00291545  29 t-inv F
  0.428571 -0.428571  0.142857    0.00291545  29 t-inv F
  0.428571  0.142857 -0.428571    0.00291545  29 t-inv F
 -0.428571 -0.142857  0.428571    0.00291545  29 t-inv F
 -0.142857 -0.428571  0.428571    0.00291545  29 t-inv F
  0.142857  0.428571 -0.428571    0.00291545  29 t-inv F
  0.285714 -0.428571 -0.142857    0.00291545  30 t-inv F
  0.285714 -0.142857 -0.428571    0.00291545  30 t-inv F
 -0.285714  0.142857  0.428571    0.00291545  30 t-inv F
  0.142857 -0.285714  0.428571    0.00291545  30 t-inv F
 -0.142857  0.285714 -0.428571    0.00291545  30 t-inv F
 -0.428571  0.285714 -0.142857    0.00291545  30 t-inv F
  0.428571 -0.285714  0.142857    0.00291545  30 t-inv F
  0.428571  0.142857 -0.285714    0.00291545  30 t-inv F
 -0.428571 -0.142857  0.285714    0.00291545  30 t-inv F
 -0.142857 -0.428571  0.285714    0.00291545  30 t-inv F
  0.142857  0.428571 -0.285714    0.00291545  30 t-inv F
  0.142857 -0.428571 -0.142857    0.00291545  31 t-inv F
  0.142857 -0.142857 -0.428571    0.00291545  31 t-inv F
 -0.142857  0.142857  0.428571    0.00291545  31 t-inv F
  0.142857 -0.142857  0.428571    0.00291545  31 t-inv F
 -0.142857  0.142857 -0.428571    0.00291545  31 t-inv F
 -0.428571  0.142857 -0.142857    0.00291545  31 t-inv F
  0.428571 -0.142857  0.142857    0.00291545  31 t-inv F
  0.428571  0.142857 -0.142857    0.00291545  31 t-inv F
 -0.428571 -0.142857  0.142857    0.00291545  31 t-inv F
 -0.142857 -0.428571  0.142857    0.00291545  31 t-inv F
  0.142857  0.428571 -0.142857    0.00291545  31 t-inv F
  0.428571  0.428571 -0.142857    0.00291545  32 t-inv F
  0.428571 -0.142857  0.428571    0.00291545  32 t-inv F
 -0.428571  0.142857 -0.428571    0.00291545  32 t-inv F
  0.142857 -0.428571 -0.428571    0.00291545  32 t-inv F
 -0.142857  0.428571  0.428571    0.00291545  32 t-inv F
  0.285714  0.428571 -0.142857    0.00291545  33 t-inv F
  0.285714 -0.142857  0.428571    0.00291545  33 t-inv F
 -0.285714  0.142857 -0.428571    0.00291545  33 t-inv F
  0.142857 -0.285714 -0.428571    0.00291545  33 t-inv F
 -0.142857  0.285714  0.428571    0.00291545  33 t-inv F
  0.428571  0.285714 -0.142857    0.00291545  33 t-inv F
 -0.428571 -0.285714  0.142857    0.00291545  33 t-inv F
 -0.428571  0.142857 -0.285714    0.00291545  33 t-inv F
  0.428571 -0.142857  0.285714    0.00291545  33 t-inv F
 -0.142857  0.428571  0.285714    0.00291545  33 t-inv F
  0.142857 -0.428571 -0.285714    0.00291545  33 t-inv F
  0.285714  0.285714 -0.142857    0.00291545  34 t-inv F
  0.285714 -0.142857  0.285714    0.00291545  34 t-inv F
 -0.285714  0.142857 -0.285714    0.00291545  34 t-inv F
  0.142857 -0.285714 -0.285714    0.00291545  34 t-inv F
 -0.142857  0.285714  0.285714    0.00291545  34 t-inv F
 -0.285714 -0.285714 -0.285714    0.00291545  35 t-inv F
 -0.428571 -0.285714 -0.285714    0.00291545  36 t-inv F
  0.285714  0.428571  0.285714    0.00291545  36 t-inv F
 -0.285714 -0.428571 -0.285714    0.00291545  36 t-inv F
  0.285714  0.285714  0.428571    0.00291545  36 t-inv F
 -0.285714 -0.285714 -0.428571    0.00291545  36 t-inv F
  0.428571 -0.285714 -0.285714    0.00291545  37 t-inv F
  0.285714 -0.428571  0.285714    0.00291545  37 t-inv F
 -0.285714  0.428571 -0.285714    0.00291545  37 t-inv F
  0.285714  0.285714 -0.428571    0.00291545  37 t-inv F
 -0.285714 -0.285714  0.428571    0.00291545  37 t-inv F
  0.285714 -0.285714 -0.285714    0.00291545  38 t-inv F
  0.285714 -0.285714  0.285714    0.00291545  38 t-inv F
 -0.285714  0.285714 -0.285714    0.00291545  38 t-inv F
  0.285714  0.285714 -0.285714    0.00291545  38 t-inv F
 -0.285714 -0.285714  0.285714    0.00291545  38 t-inv F
 -0.428571 -0.428571 -0.285714    0.00291545  39 t-inv F
 -0.428571 -0.285714 -0.428571    0.00291545  39 t-inv F
  0.428571  0.285714  0.428571    0.00291545  39 t-inv F
  0.285714  0.428571  0.428571    0.00291545  39 t-inv F
 -0.285714 -0.428571 -0.428571    0.00291545  39 t-inv F
  0.428571 -0.428571 -0.285714    0.00291545  40 t-inv F
  0.428571 -0.285714 -0.428571    0.00291545  40 t-inv F
 -0.428571  0.285714  0.428571    0.00291545  40 t-inv F
  0.285714 -0.428571  0.428571    0.00291545  40 t-inv F
 -0.285714  0.428571 -0.428571    0.00291545  40 t-inv F
 -0.428571  0.428571 -0.285714    0.00291545  40 t-inv F
  0.428571 -0.428571  0.285714    0.00291545  40 t-inv F
  0.428571  0.285714 -0.428571    0.00291545  40 t-inv F
 -0.428571 -0.285714  0.428571    0.00291545  40 t-inv F
 -0.285714 -0.428571  0.428571    0.00291545  40 t-inv F
  0.285714  0.428571 -0.428571    0.00291545  40 t-inv F
  0.285714 -0.428571 -0.285714    0.00291545  41 t-inv F
  0.285714 -0.285714 -0.428571    0.00291545  41 t-inv F
 -0.285714  0.285714  0.428571    0.00291545  41 t-inv F
  0.285714 -0.285714  0.428571    0.00291545  41 t-inv F
 -0.285714  0.285714 -0.428571    0.00291545  41 t-inv F
 -0.428571  0.285714 -0.285714    0.00291545  41 t-inv F
  0.428571 -0.285714  0.285714    0.00291545  41 t-inv F
  0.428571  0.285714 -0.285714    0.00291545  41 t-inv F
 -0.428571 -0.285714  0.285714    0.00291545  41 t-inv F
 -0.285714 -0.428571  0.285714    0.00291545  41 t-inv F
  0.285714  0.428571 -0.285714    0.00291545  41 t-inv F
  0.428571  0.428571 -0.285714    0.00291545  42 t-inv F
  0.428571 -0.285714  0.428571    0.00291545  42 t-inv F
 -0.428571  0.285714 -0.428571    0.00291545  42 t-inv F
  0.285714 -0.428571 -0.428571    0.00291545  42 t-inv F
 -0.285714  0.428571  0.428571    0.00291545  42 t-inv F
 -0.428571 -0.428571 -0.428571    0.00291545  43 t-inv F
  0.428571 -0.428571 -0.428571    0.00291545  44 t-inv F
  0.428571 -0.428571  0.428571    0.00291545  44 t-inv F
 -0.428571  0.428571 -0.428571    0.00291545  44 t-inv F
  0.428571  0.428571 -0.428571    0.00291545  44 t-inv F
 -0.428571 -0.428571  0.428571    0.00291545  44 t-inv F


--------------------------------------------------------------------------------------------------------




 Dimension of arrays:
   k-points           NKPTS =     44   k-points in BZ     NKDIM =     44   number of bands    NBANDS=     20
   number of dos      NEDOS =    301   number of ions     NIONS =      4
   non local maximal  LDIM  =      6   non local SUM 2l+1 LMDIM =     18
   total plane-waves  NPLWV =  21952
   max r-space proj   IRMAX =      1   max aug-charges    IRDMAX=  19824
   dimension x,y,z NGX =    28 NGY =   28 NGZ =   28
   dimension x,y,z NGXF=    56 NGYF=   56 NGZF=   56
   support grid    NGXF=    56 NGYF=   56 NGZF=   56
   ions per type =               2   2
   NGX,Y,Z   is equivalent  to a cutoff of   9.11,  9.11,  9.11 a.u.
   NGXF,Y,Z  is equivalent  to a cutoff of  18.23, 18.23, 18.23 a.u.

 SYSTEM =  NiO                                     
 POSCAR =  NiO-AFM                                 

 Startparameter for this run:
   NWRITE =      2    write-flag & timer
   PREC   = normal    normal or accurate (medium, high low for compatibility)
   ISTART =      0    job   : 0-new  1-cont  2-samecut
   ICHARG =      2    charge: 1-file 2-atom 10-const
   ISPIN  =      2    spin polarized calculation?
   LNONCOLLINEAR =      F non collinear calculations
   LSORBIT =      F    spin-orbit coupling
   INIWAV =      1    electr: 0-lowe 1-rand  2-diag
   LASPH  =      T    aspherical Exc in radial PAW
   METAGGA=      F    non-selfconsistent MetaGGA calc.

 Electronic Relaxation 1
   ENCUT  =  400.0 eV  29.40 Ry    5.42 a.u.   8.33  8.33  8.33*2*pi/ulx,y,z
   ENINI  =  400.0     initial cutoff
   ENAUG  =  605.4 eV  augmentation charge cutoff
   NELM   =     60;   NELMIN=  2; NELMDL= -5     # of ELM steps 
   EDIFF  = 0.1E-07   stopping-criterion for ELM
   LREAL  =      F    real-space projection
   NLSPLINE    = F    spline interpolate recip. space projectors
   LCOMPAT=      F    compatible to vasp.4.4
   GGA_COMPAT  = T    GGA compatible to vasp.4.4-vasp.4.6
   LMAXPAW     = -100 max onsite density
   LMAXMIX     =    2 max onsite mixed and CHGCAR
   VOSKOWN=      0    Vosko Wilk Nusair interpolation
   ROPT   =    0.00000   0.00000
 Ionic relaxation
   EDIFFG = 0.1E-06   stopping-criterion for IOM
   NSW    =      0    number of steps for IOM
   NBLOCK =      1;   KBLOCK =      1    inner block; outer block 
   IBRION =     -1    ionic relax: 0-MD 1-quasi-New 2-CG
   NFREE  =      0    steps in history (QN), initial steepest desc. (CG)
   ISIF   =      2    stress and relaxation
   IWAVPR =     10    prediction:  0-non 1-charg 2-wave 3-comb
   ISYM   =      2    0-nonsym 1-usesym 2-fastsym
   LCORR  =      T    Harris-Foulkes like correction to forces

   POTIM  = 0.5000    time-step for ionic-motion
   TEIN   =    0.0    initial temperature
   TEBEG  =    0.0;   TEEND  =   0.0 temperature during run
   SMASS  =  -3.00    Nose mass-parameter (am)
   estimated Nose-frequenzy (Omega)   =  0.10E-29 period in steps = 0.13E+47 mass=  -0.596E-27a.u.
   SCALEE = 1.0000    scale energy and forces
   NPACO  =    256;   APACO  = 16.0  distance and # of slots for P.C.
   PSTRESS=    0.0 pullay stress

  Mass of Ions in am
   POMASS =  58.69 16.00
  Ionic Valenz
   ZVAL   =  10.00  6.00
  Atomic Wigner-Seitz radii
   RWIGS  =  -1.00 -1.00
  virtual crystal weights 
   VCA    =   1.00  1.00
   NELECT =      32.0000    total number of electrons
   NUPDOWN=      -1.0000    fix difference up-down

 DOS related values:
   EMIN   =  10.00;   EMAX   =-10.00  energy-range for DOS
   EFERMI =   0.00
   ISMEAR =    -5;   SIGMA  =   0.20  broadening in eV -4-tet -1-fermi 0-gaus

 Electronic relaxation 2 (details)
   IALGO  =     38    algorithm
   LDIAG  =      T    sub-space diagonalisation (order eigenvalues)
   LSUBROT=      F    optimize rotation matrix (better conditioning)
   TURBO    =      0    0=normal 1=particle mesh
   IRESTART =      0    0=no restart 2=restart with 2 vectors
   NREBOOT  =      0    no. of reboots
   NMIN     =      0    reboot dimension
   EREF     =   0.00    reference energy to select bands
   IMIX   =      4    mixing-type and parameters
     AMIX     =   0.40;   BMIX     =  1.00
     AMIX_MAG =   1.60;   BMIX_MAG =  1.00
     AMIN     =   0.10
     WC   =   100.;   INIMIX=   1;  MIXPRE=   1;  MAXMIX= -45

 Intra band minimization:
   WEIMIN = 0.0000     energy-eigenvalue tresh-hold
   EBREAK =  0.13E-09  absolut break condition
   DEPER  =   0.30     relativ break condition  

   TIME   =   0.40     timestep for ELM

  volume/ion in A,a.u.               =       9.06        61.17
  Fermi-wavevector in a.u.,A,eV,Ry     =   1.570358  2.967547 33.552312  2.466025
  Thomas-Fermi vector in A             =   2.672104
 
 Write flags
   LWAVE        =      T    write WAVECAR
   LDOWNSAMPLE  =      F    k-point downsampling of WAVECAR
   LCHARG       =      T    write CHGCAR
   LVTOT        =      F    write LOCPOT, total local potential
   LVHAR        =      F    write LOCPOT, Hartree potential only
   LELF         =      F    write electronic localiz. function (ELF)
   LORBIT       =      0    0 simple, 1 ext, 2 COOP (PROOUT), +10 PAW based schemes


 Dipole corrections
   LMONO  =      F    monopole corrections only (constant potential shift)
   LDIPOL =      F    correct potential (dipole corrections)
   IDIPOL =      0    1-x, 2-y, 3-z, 4-all directions 
   EPSILON=  1.0000000 bulk dielectric constant

 Exchange correlation treatment:
   GGA     =    --    GGA type
   LEXCH   =     8    internal setting for exchange type
   VOSKOWN=      0    Vosko Wilk Nusair interpolation
   LHFCALC =     F    Hartree Fock is set to
   LHFONE  =     F    Hartree Fock one center treatment
   AEXX    =    0.0000 exact exchange contribution

 Linear response parameters
   LEPSILON=     F    determine dielectric tensor
   LRPA    =     F    only Hartree local field effects (RPA)
   LNABLA  =     F    use nabla operator in PAW spheres
   LVEL    =     F    velocity operator in full k-point grid
   LINTERFAST=   F  fast interpolation
   KINTER  =     0    interpolate to denser k-point grid
   CSHIFT  =0.1000    complex shift for real part using Kramers Kronig
   OMEGAMAX=  -1.0    maximum frequency
   DEG_THRESHOLD= 0.2000000E-02 threshold for treating states as degnerate
   RTIME   =   -0.100 relaxation time in fs
  (WPLASMAI=    0.000 imaginary part of plasma frequency in eV, 0.658/RTIME)
   DFIELD  = 0.0000000 0.0000000 0.0000000 field for delta impulse in time
 
 Orbital magnetization related:
   ORBITALMAG=     F  switch on orbital magnetization
   LCHIMAG   =     F  perturbation theory with respect to B field
   DQ        =  0.001000  dq finite difference perturbation B field
   LLRAUG    =     F  two centre corrections for induced B field



--------------------------------------------------------------------------------------------------------


 Static calculation
 charge density and potential will be updated during run
 spin polarized calculation
 Variant of blocked Davidson
 Davidson routine will perform the subspace rotation
 perform sub-space diagonalisation
    after iterative eigenvector-optimisation
 modified Broyden-mixing scheme, WC =      100.0
 initial mixing is a Kerker type mixing with AMIX =  0.4000 and BMIX =      1.0000
 Hartree-type preconditioning will be used
 using additional bands            4
 reciprocal scheme for non local part
 use partial core corrections
 calculate Harris-corrections to forces 
   (improved forces if not selfconsistent)
 use gradient corrections 
 use of overlap-Matrix (Vanderbilt PP)
 Fermi weights with tetrahedron method with Bloechl corrections


--------------------------------------------------------------------------------------------------------


  energy-cutoff  :      400.00
  volume of cell :       36.26
      direct lattice vectors                 reciprocal lattice vectors
     4.170000000  2.085000000  2.085000000     0.359712230 -0.119904077 -0.119904077
     2.085000000  4.170000000  2.085000000    -0.119904077  0.359712230 -0.119904077
     2.085000000  2.085000000  4.170000000    -0.119904077 -0.119904077  0.359712230

  length of vectors
     5.107186114  5.107186114  5.107186114     0.397676833  0.397676833  0.397676833


 
 k-points in units of 2pi/SCALE and weight: read from INCAR                         
   0.00000000  0.00000000  0.00000000       0.003
   0.21428571 -0.07142857 -0.07142857       0.017
   0.42857143 -0.14285714 -0.14285714       0.017
   0.64285714 -0.21428571 -0.21428571       0.017
   0.14285714  0.14285714 -0.14285714       0.017
   0.35714286  0.07142857 -0.21428571       0.035
   0.57142857  0.00000000 -0.28571429       0.035
  -0.71428571  0.42857143  0.14285714       0.035
  -0.50000000  0.35714286  0.07142857       0.035
  -0.28571429  0.28571429 -0.00000000       0.017
   0.28571429  0.28571429 -0.28571429       0.017
   0.50000000  0.21428571 -0.35714286       0.035
  -0.78571429  0.64285714  0.07142857       0.035
  -0.57142857  0.57142857  0.00000000       0.017
   0.42857143  0.42857143 -0.42857143       0.017
  -0.85714286  0.85714286 -0.00000000       0.017
   0.07142857  0.07142857  0.07142857       0.006
   0.28571429  0.00000000  0.00000000       0.017
   0.50000000 -0.07142857 -0.07142857       0.017
  -0.78571429  0.35714286  0.35714286       0.017
  -0.57142857  0.28571429  0.28571429       0.017
  -0.35714286  0.21428571  0.21428571       0.017
   0.21428571  0.21428571 -0.07142857       0.017
   0.42857143  0.14285714 -0.14285714       0.035
  -0.85714286  0.57142857  0.28571429       0.035
  -0.64285714  0.50000000  0.21428571       0.035
  -0.42857143  0.42857143  0.14285714       0.035
   0.35714286  0.35714286 -0.21428571       0.017
  -0.92857143  0.78571429  0.21428571       0.035
  -0.71428571  0.71428571  0.14285714       0.035
  -0.50000000  0.64285714  0.07142857       0.035
  -0.50000000 -0.50000000  0.64285714       0.017
  -0.28571429 -0.57142857  0.57142857       0.035
  -0.35714286 -0.35714286  0.50000000       0.017
   0.14285714  0.14285714  0.14285714       0.006
   0.35714286  0.07142857  0.07142857       0.017
  -0.92857143  0.50000000  0.50000000       0.017
  -0.71428571  0.42857143  0.42857143       0.017
   0.28571429  0.28571429  0.00000000       0.017
  -1.00000000  0.71428571  0.42857143       0.035
  -0.78571429  0.64285714  0.35714286       0.035
  -0.57142857 -0.57142857  0.85714286       0.017
   0.21428571  0.21428571  0.21428571       0.006
  -1.07142857  0.64285714  0.64285714       0.017
 
 k-points in reciprocal lattice and weights: read from INCAR                         
   0.00000000  0.00000000  0.00000000       0.003
   0.14285714  0.00000000 -0.00000000       0.017
   0.28571429  0.00000000  0.00000000       0.017
   0.42857143  0.00000000  0.00000000       0.017
   0.14285714  0.14285714  0.00000000       0.017
   0.28571429  0.14285714 -0.00000000       0.035
   0.42857143  0.14285714 -0.00000000       0.035
  -0.42857143  0.14285714  0.00000000       0.035
  -0.28571429  0.14285714  0.00000000       0.035
  -0.14285714  0.14285714 -0.00000000       0.017
   0.28571429  0.28571429  0.00000000       0.017
   0.42857143  0.28571429 -0.00000000       0.035
  -0.42857143  0.28571429 -0.00000000       0.035
  -0.28571429  0.28571429  0.00000000       0.017
   0.42857143  0.42857143  0.00000000       0.017
  -0.42857143  0.42857143 -0.00000000       0.017
   0.14285714  0.14285714  0.14285714       0.006
   0.28571429  0.14285714  0.14285714       0.017
   0.42857143  0.14285714  0.14285714       0.017
  -0.42857143  0.14285714  0.14285714       0.017
  -0.28571429  0.14285714  0.14285714       0.017
  -0.14285714  0.14285714  0.14285714       0.017
   0.28571429  0.28571429  0.14285714       0.017
   0.42857143  0.28571429  0.14285714       0.035
  -0.42857143  0.28571429  0.14285714       0.035
  -0.28571429  0.28571429  0.14285714       0.035
  -0.14285714  0.28571429  0.14285714       0.035
   0.42857143  0.42857143  0.14285714       0.017
  -0.42857143  0.42857143  0.14285714       0.035
  -0.28571429  0.42857143  0.14285714       0.035
  -0.14285714  0.42857143  0.14285714       0.035
  -0.42857143 -0.42857143  0.14285714       0.017
  -0.28571429 -0.42857143  0.14285714       0.035
  -0.28571429 -0.28571429  0.14285714       0.017
   0.28571429  0.28571429  0.28571429       0.006
   0.42857143  0.28571429  0.28571429       0.017
  -0.42857143  0.28571429  0.28571429       0.017
  -0.28571429  0.28571429  0.28571429       0.017
   0.42857143  0.42857143  0.28571429       0.017
  -0.42857143  0.42857143  0.28571429       0.035
  -0.28571429  0.42857143  0.28571429       0.035
  -0.42857143 -0.42857143  0.28571429       0.017
   0.42857143  0.42857143  0.42857143       0.006
  -0.42857143  0.42857143  0.42857143       0.017
 
 position of ions in fractional coordinates (direct lattice) 
   0.00000000  0.00000000  0.00000000
   0.50000000  0.50000000  0.50000000
   0.25000000  0.25000000  0.25000000
   0.75000000  0.75000000  0.75000000
 
 position of ions in cartesian coordinates  (Angst):
   0.00000000  0.00000000  0.00000000
   4.17000000  4.17000000  4.17000000
   2.08500000  2.08500000  2.08500000
   6.25500000  6.25500000  6.25500000
 


--------------------------------------------------------------------------------------------------------


 k-point   1 :   0.0000 0.0000 0.0000  plane waves:     663
 k-point   2 :   0.1429 0.0000-0.0000  plane waves:     657
 k-point   3 :   0.2857 0.0000 0.0000  plane waves:     662
 k-point   4 :   0.4286 0.0000 0.0000  plane waves:     659
 k-point   5 :   0.1429 0.1429 0.0000  plane waves:     662
 k-point   6 :   0.2857 0.1429-0.0000  plane waves:     654
 k-point   7 :   0.4286 0.1429-0.0000  plane waves:     657
 k-point   8 :  -0.4286 0.1429 0.0000  plane waves:     663
 k-point   9 :  -0.2857 0.1429 0.0000  plane waves:     661
 k-point  10 :  -0.1429 0.1429-0.0000  plane waves:     647
 k-point  11 :   0.2857 0.2857 0.0000  plane waves:     662
 k-point  12 :   0.4286 0.2857-0.0000  plane waves:     664
 k-point  13 :  -0.4286 0.2857-0.0000  plane waves:     662
 k-point  14 :  -0.2857 0.2857 0.0000  plane waves:     663
 k-point  15 :   0.4286 0.4286 0.0000  plane waves:     659
 k-point  16 :  -0.4286 0.4286-0.0000  plane waves:     656
 k-point  17 :   0.1429 0.1429 0.1429  plane waves:     660
 k-point  18 :   0.2857 0.1429 0.1429  plane waves:     663
 k-point  19 :   0.4286 0.1429 0.1429  plane waves:     662
 k-point  20 :  -0.4286 0.1429 0.1429  plane waves:     657
 k-point  21 :  -0.2857 0.1429 0.1429  plane waves:     665
 k-point  22 :  -0.1429 0.1429 0.1429  plane waves:     663
 k-point  23 :   0.2857 0.2857 0.1429  plane waves:     657
 k-point  24 :   0.4286 0.2857 0.1429  plane waves:     657
 k-point  25 :  -0.4286 0.2857 0.1429  plane waves:     655
 k-point  26 :  -0.2857 0.2857 0.1429  plane waves:     666
 k-point  27 :  -0.1429 0.2857 0.1429  plane waves:     661
 k-point  28 :   0.4286 0.4286 0.1429  plane waves:     656
 k-point  29 :  -0.4286 0.4286 0.1429  plane waves:     663
 k-point  30 :  -0.2857 0.4286 0.1429  plane waves:     663
 k-point  31 :  -0.1429 0.4286 0.1429  plane waves:     667
 k-point  32 :  -0.4286-0.4286 0.1429  plane waves:     658
 k-point  33 :  -0.2857-0.4286 0.1429  plane waves:     657
 k-point  34 :  -0.2857-0.2857 0.1429  plane waves:     661
 k-point  35 :   0.2857 0.2857 0.2857  plane waves:     661
 k-point  36 :   0.4286 0.2857 0.2857  plane waves:     656
 k-point  37 :  -0.4286 0.2857 0.2857  plane waves:     656
 k-point  38 :  -0.2857 0.2857 0.2857  plane waves:     653
 k-point  39 :   0.4286 0.4286 0.2857  plane waves:     649
 k-point  40 :  -0.4286 0.4286 0.2857  plane waves:     654
 k-point  41 :  -0.2857 0.4286 0.2857  plane waves:     657
 k-point  42 :  -0.4286-0.4286 0.2857  plane waves:     657
 k-point  43 :   0.4286 0.4286 0.4286  plane waves:     652
 k-point  44 :  -0.4286 0.4286 0.4286  plane waves:     654

 maximum and minimum number of plane-waves per node :       667      647

 maximum number of plane-waves:       667
 maximum index in each direction: 
   IXMAX=    8   IYMAX=    8   IZMAX=    8
   IXMIN=   -8   IYMIN=   -8   IZMIN=   -8


 serial   3D FFT for wavefunctions
 parallel 3D FFT for charge:
    minimum data exchange during FFTs selected (reduces bandwidth)


 total amount of memory used by VASP MPI-rank0    50711. kBytes
=======================================================================

   base      :      30000. kBytes
   nonl-proj :       8507. kBytes
   fftplans  :       1619. kBytes
   grid      :       5393. kBytes
   one-center:        124. kBytes
   wavefun   :       5068. kBytes
 
     INWAV:  cpu time    0.0000: real time    0.0000
 Broyden mixing: mesh for mixing (old mesh)
   NGX = 17   NGY = 17   NGZ = 17
  (NGX  = 56   NGY  = 56   NGZ  = 56)
  gives a total of   4913 points

 initial charge density was supplied:
 charge density of overlapping atoms calculated
 number of electron      32.0000000 magnetization       0.0000000
 keeping initial charge density in first step


--------------------------------------------------------------------------------------------------------


 Maximum index for augmentation-charges         4807 (set IRDMAX)


--------------------------------------------------------------------------------------------------------


 First call to EWALD:  gamma=   0.536
 Maximum number of real-space cells 3x 3x 3
 Maximum number of reciprocal cells 4x 4x 4

    FEWALD:  cpu time    0.0040: real time    0.0017


--------------------------------------- Iteration      1(   1)  ---------------------------------------


    POTLOK:  cpu time    0.0880: real time    0.1272
    SETDIJ:  cpu time    0.7760: real time    0.7723
     EDDAV:  cpu time    1.6560: real time    1.6573
 BZINTS: Fermi energy:   20.189636;   32.000000 electrons
         Band energy: 0.350477E+03;  BLOECHL correction:   -0.342983
       DOS:  cpu time    0.0200: real time    0.0204
    --------------------------------------------
      LOOP:  cpu time    2.5400: real time    2.5772

 eigenvalue-minimisations  :  3632
 total energy-change (2. order) : 0.2261331E+03  (-0.1332116E+04)
 number of electron      32.0000000 magnetization       0.0000000
 augmentation part       32.0000000 magnetization       0.0000000

 Free energy of the ion-electron system (eV)
  ---------------------------------------------------
  alpha Z        PSCENC =       130.90692060
  Ewald energy   TEWEN  =     -2604.77031634
  -Hartree energ DENC   =      -652.28959455
  -exchange      EXHF   =         0.00000000
  -V(xc)+E(xc)   XCENC  =       119.15435539
  PAW double counting   =      2618.08898863    -2755.28790743
  entropy T*S    EENTRO =         0.00000000
  eigenvalues    EBANDS =       350.47654605
  atomic energy  EATOM  =      3019.85406633
  Solvation  Ediel_sol  =         0.00000000
  ---------------------------------------------------
  free energy    TOTEN  =       226.13305867 eV

  energy without entropy =      226.13305867  energy(sigma->0) =      226.13305867


--------------------------------------------------------------------------------------------------------




--------------------------------------- Iteration      1(   2)  ---------------------------------------


     EDDAV:  cpu time    1.7000: real time    1.6983
 BZINTS: Fermi energy:   10.750127;   32.000000 electrons
         Band energy: 0.122251E+03;  BLOECHL correction:   -0.031874
       DOS:  cpu time    0.0200: real time    0.0210
    --------------------------------------------
      LOOP:  cpu time    1.7200: real time    1.7193

 eigenvalue-minimisations  :  3668
 total energy-change (2. order) :-0.2282252E+03  (-0.2129348E+03)
 number of electron      32.0000000 magnetization       0.0000000
 augmentation part       32.0000000 magnetization       0.0000000

 Free energy of the ion-electron system (eV)
  ---------------------------------------------------
  alpha Z        PSCENC =       130.90692060
  Ewald energy   TEWEN  =     -2604.77031634
  -Hartree energ DENC   =      -652.28959455
  -exchange      EXHF   =         0.00000000
  -V(xc)+E(xc)   XCENC  =       119.15435539
  PAW double counting   =      2618.08898863    -2755.28790743
  entropy T*S    EENTRO =         0.00000000
  eigenvalues    EBANDS =       122.25139146
  atomic energy  EATOM  =      3019.85406633
  Solvation  Ediel_sol  =         0.00000000
  ---------------------------------------------------
  free energy    TOTEN  =        -2.09209592 eV

  energy without entropy =       -2.09209592  energy(sigma->0) =       -2.09209592


--------------------------------------------------------------------------------------------------------




--------------------------------------- Iteration      1(   3)  ---------------------------------------


     EDDAV:  cpu time    1.7640: real time    1.7653
 BZINTS: Fermi energy:    9.979380;   32.000000 electrons
         Band energy: 0.973961E+02;  BLOECHL correction:   -0.020571
       DOS:  cpu time    0.0240: real time    0.0218
    --------------------------------------------
      LOOP:  cpu time    1.7880: real time    1.7870

 eigenvalue-minimisations  :  4004
 total energy-change (2. order) :-0.2485531E+02  (-0.2371638E+02)
 number of electron      32.0000000 magnetization       0.0000000
 augmentation part       32.0000000 magnetization       0.0000000

 Free energy of the ion-electron system (eV)
  ---------------------------------------------------
  alpha Z        PSCENC =       130.90692060
  Ewald energy   TEWEN  =     -2604.77031634
  -Hartree energ DENC   =      -652.28959455
  -exchange      EXHF   =         0.00000000
  -V(xc)+E(xc)   XCENC  =       119.15435539
  PAW double counting   =      2618.08898863    -2755.28790743
  entropy T*S    EENTRO =         0.00000000
  eigenvalues    EBANDS =        97.39608441
  atomic energy  EATOM  =      3019.85406633
  Solvation  Ediel_sol  =         0.00000000
  ---------------------------------------------------
  free energy    TOTEN  =       -26.94740296 eV

  energy without entropy =      -26.94740296  energy(sigma->0) =      -26.94740296


--------------------------------------------------------------------------------------------------------




--------------------------------------- Iteration      1(   4)  ---------------------------------------


     EDDAV:  cpu time    1.8000: real time    1.8017
 BZINTS: Fermi energy:    9.965249;   32.000000 electrons
         Band energy: 0.966643E+02;  BLOECHL correction:   -0.022831
       DOS:  cpu time    0.0240: real time    0.0214
    --------------------------------------------
      LOOP:  cpu time    1.8240: real time    1.8231

 eigenvalue-minimisations  :  3912
 total energy-change (2. order) :-0.7317527E+00  (-0.7274952E+00)
 number of electron      32.0000000 magnetization       0.0000000
 augmentation part       32.0000000 magnetization       0.0000000

 Free energy of the ion-electron system (eV)
  ---------------------------------------------------
  alpha Z        PSCENC =       130.90692060
  Ewald energy   TEWEN  =     -2604.77031634
  -Hartree energ DENC   =      -652.28959455
  -exchange      EXHF   =         0.00000000
  -V(xc)+E(xc)   XCENC  =       119.15435539
  PAW double counting   =      2618.08898863    -2755.28790743
  entropy T*S    EENTRO =         0.00000000
  eigenvalues    EBANDS =        96.66433168
  atomic energy  EATOM  =      3019.85406633
  Solvation  Ediel_sol  =         0.00000000
  ---------------------------------------------------
  free energy    TOTEN  =       -27.67915569 eV

  energy without entropy =      -27.67915569  energy(sigma->0) =      -27.67915569


--------------------------------------------------------------------------------------------------------




--------------------------------------- Iteration      1(   5)  ---------------------------------------


     EDDAV:  cpu time    1.8360: real time    1.8370
 BZINTS: Fermi energy:    9.964844;   32.000000 electrons
         Band energy: 0.966430E+02;  BLOECHL correction:   -0.022868
       DOS:  cpu time    0.0200: real time    0.0210
    CHARGE:  cpu time    0.2160: real time    0.2143
    MIXING:  cpu time    0.0000: real time    0.0013
    --------------------------------------------
      LOOP:  cpu time    2.0720: real time    2.0736

 eigenvalue-minimisations  :  4236
 total energy-change (2. order) :-0.2136462E-01  (-0.2136781E-01)
 number of electron      32.0000049 magnetization       0.0000000
 augmentation part       13.0872048 magnetization       0.0000000

 Broyden mixing:
  rms(total) = 0.19942E+01    rms(broyden)= 0.19911E+01
  rms(prec ) = 0.34247E+01
  weight for this iteration     100.00

 Free energy of the ion-electron system (eV)
  ---------------------------------------------------
  alpha Z        PSCENC =       130.90692060
  Ewald energy   TEWEN  =     -2604.77031634
  -Hartree energ DENC   =      -652.28959455
  -exchange      EXHF   =         0.00000000
  -V(xc)+E(xc)   XCENC  =       119.15435539
  PAW double counting   =      2618.08898863    -2755.28790743
  entropy T*S    EENTRO =         0.00000000
  eigenvalues    EBANDS =        96.64296706
  atomic energy  EATOM  =      3019.85406633
  Solvation  Ediel_sol  =         0.00000000
  ---------------------------------------------------
  free energy    TOTEN  =       -27.70052032 eV

  energy without entropy =      -27.70052032  energy(sigma->0) =      -27.70052032


--------------------------------------------------------------------------------------------------------




--------------------------------------- Iteration      1(   6)  ---------------------------------------


    POTLOK:  cpu time    0.0600: real time    0.0613
    SETDIJ:  cpu time    0.7040: real time    0.7045
     EDDAV:  cpu time    2.2240: real time    2.2206
 BZINTS: Fermi energy:    7.199729;   32.000000 electrons
         Band energy: 0.694751E+02;  BLOECHL correction:    0.000000
       DOS:  cpu time    0.0120: real time    0.0098
    CHARGE:  cpu time    0.1920: real time    0.1931
    MIXING:  cpu time    0.0000: real time    0.0014
    --------------------------------------------
      LOOP:  cpu time    3.1920: real time    3.1907

 eigenvalue-minimisations  :  5344
 total energy-change (2. order) : 0.2782874E+01  (-0.4383177E+01)
 number of electron      32.0000043 magnetization      -0.0000000
 augmentation part       14.4399995 magnetization      -0.0000000

 Broyden mixing:
  rms(total) = 0.21721E+01    rms(broyden)= 0.21718E+01
  rms(prec ) = 0.28216E+01
  weight for this iteration     100.00

 eigenvalues of (default mixing * dielectric matrix)
  average eigenvalue GAMMA=   0.3908
  0.3908

 Free energy of the ion-electron system (eV)
  ---------------------------------------------------
  alpha Z        PSCENC =       130.90692060
  Ewald energy   TEWEN  =     -2604.77031634
  -Hartree energ DENC   =      -632.80071280
  -exchange      EXHF   =         0.00000000
  -V(xc)+E(xc)   XCENC  =       119.55429990
  PAW double counting   =      2789.73817758    -2916.87517601
  entropy T*S    EENTRO =         0.00000000
  eigenvalues    EBANDS =        69.47509403
  atomic energy  EATOM  =      3019.85406633
  Solvation  Ediel_sol  =         0.00000000
  ---------------------------------------------------
  free energy    TOTEN  =       -24.91764672 eV

  energy without entropy =      -24.91764672  energy(sigma->0) =      -24.91764672


--------------------------------------------------------------------------------------------------------




--------------------------------------- Iteration      1(   7)  ---------------------------------------


    POTLOK:  cpu time    0.0600: real time    0.0620
    SETDIJ:  cpu time    0.7040: real time    0.7037
     EDDAV:  cpu time    1.9280: real time    1.9257
 BZINTS: Fermi energy:    7.586733;   32.000000 electrons
         Band energy: 0.910303E+02;  BLOECHL correction:   -0.000000
       DOS:  cpu time    0.0120: real time    0.0098
    CHARGE:  cpu time    0.1880: real time    0.1927
    MIXING:  cpu time    0.0040: real time    0.0014
    --------------------------------------------
      LOOP:  cpu time    2.8960: real time    2.8953

 eigenvalue-minimisations  :  4464
 total energy-change (2. order) : 0.1590914E+01  (-0.7242373E+00)
 number of electron      32.0000045 magnetization       0.0000000
 augmentation part       13.6675945 magnetization       0.0000000

 Broyden mixing:
  rms(total) = 0.91310E+00    rms(broyden)= 0.91283E+00
  rms(prec ) = 0.96619E+00
  weight for this iteration     100.00

 eigenvalues of (default mixing * dielectric matrix)
  average eigenvalue GAMMA=   0.6752
  0.7934  0.5571

 Free energy of the ion-electron system (eV)
  ---------------------------------------------------
  alpha Z        PSCENC =       130.90692060
  Ewald energy   TEWEN  =     -2604.77031634
  -Hartree energ DENC   =      -642.62842562
  -exchange      EXHF   =         0.00000000
  -V(xc)+E(xc)   XCENC  =       119.09459699
  PAW double counting   =      2899.99602638    -3036.80985377
  entropy T*S    EENTRO =         0.00000000
  eigenvalues    EBANDS =        91.03025259
  atomic energy  EATOM  =      3019.85406633
  Solvation  Ediel_sol  =         0.00000000
  ---------------------------------------------------
  free energy    TOTEN  =       -23.32673285 eV

  energy without entropy =      -23.32673285  energy(sigma->0) =      -23.32673285


--------------------------------------------------------------------------------------------------------




--------------------------------------- Iteration      1(   8)  ---------------------------------------


    POTLOK:  cpu time    0.0600: real time    0.0620
    SETDIJ:  cpu time    0.7040: real time    0.7041
     EDDAV:  cpu time    1.7720: real time    1.7715
 BZINTS: Fermi energy:    7.429656;   32.000000 electrons
         Band energy: 0.866994E+02;  BLOECHL correction:    0.000000
       DOS:  cpu time    0.0120: real time    0.0100
    CHARGE:  cpu time    0.1920: real time    0.1936
    MIXING:  cpu time    0.0000: real time    0.0015
    --------------------------------------------
      LOOP:  cpu time    2.7400: real time    2.7426

 eigenvalue-minimisations  :  4000
 total energy-change (2. order) :-0.2327164E+00  (-0.2195226E+00)
 number of electron      32.0000047 magnetization       0.0000000
 augmentation part       13.7012275 magnetization       0.0000000

 Broyden mixing:
  rms(total) = 0.59684E+00    rms(broyden)= 0.59674E+00
  rms(prec ) = 0.67767E+00
  weight for this iteration     100.00

 eigenvalues of (default mixing * dielectric matrix)
  average eigenvalue GAMMA=   1.1414
  2.3025  0.5608  0.5608

 Free energy of the ion-electron system (eV)
  ---------------------------------------------------
  alpha Z        PSCENC =       130.90692060
  Ewald energy   TEWEN  =     -2604.77031634
  -Hartree energ DENC   =      -636.53779313
  -exchange      EXHF   =         0.00000000
  -V(xc)+E(xc)   XCENC  =       119.06414813
  PAW double counting   =      3027.19119063    -3165.96702870
  entropy T*S    EENTRO =         0.00000000
  eigenvalues    EBANDS =        86.69936323
  atomic energy  EATOM  =      3019.85406633
  Solvation  Ediel_sol  =         0.00000000
  ---------------------------------------------------
  free energy    TOTEN  =       -23.55944926 eV

  energy without entropy =      -23.55944926  energy(sigma->0) =      -23.55944926


--------------------------------------------------------------------------------------------------------




--------------------------------------- Iteration      1(   9)  ---------------------------------------


    POTLOK:  cpu time    0.0640: real time    0.0619
    SETDIJ:  cpu time    0.7040: real time    0.7047
     EDDAV:  cpu time    2.3400: real time    2.3411
 BZINTS: Fermi energy:    7.302052;   32.000000 electrons
         Band energy: 0.862129E+02;  BLOECHL correction:    0.000000
       DOS:  cpu time    0.0120: real time    0.0098
    CHARGE:  cpu time    0.1920: real time    0.1928
    MIXING:  cpu time    0.0000: real time    0.0015
    --------------------------------------------
      LOOP:  cpu time    3.3120: real time    3.3118

 eigenvalue-minimisations  :  5600
 total energy-change (2. order) : 0.5766952E-01  (-0.1690026E-01)
 number of electron      32.0000046 magnetization       0.0000000
 augmentation part       13.7757721 magnetization       0.0000000

 Broyden mixing:
  rms(total) = 0.14291E+00    rms(broyden)= 0.14291E+00
  rms(prec ) = 0.15535E+00
  weight for this iteration     100.00

 eigenvalues of (default mixing * dielectric matrix)
  average eigenvalue GAMMA=   1.1139
  2.6218  0.7198  0.5570  0.5570

 Free energy of the ion-electron system (eV)
  ---------------------------------------------------
  alpha Z        PSCENC =       130.90692060
  Ewald energy   TEWEN  =     -2604.77031634
  -Hartree energ DENC   =      -632.96940100
  -exchange      EXHF   =         0.00000000
  -V(xc)+E(xc)   XCENC  =       119.16433744
  PAW double counting   =      3197.70770240    -3339.60802464
  entropy T*S    EENTRO =         0.00000000
  eigenvalues    EBANDS =        86.21293548
  atomic energy  EATOM  =      3019.85406633
  Solvation  Ediel_sol  =         0.00000000
  ---------------------------------------------------
  free energy    TOTEN  =       -23.50177974 eV

  energy without entropy =      -23.50177974  energy(sigma->0) =      -23.50177974


--------------------------------------------------------------------------------------------------------




--------------------------------------- Iteration      1(  10)  ---------------------------------------


    POTLOK:  cpu time    0.0640: real time    0.0619
    SETDIJ:  cpu time    0.7160: real time    0.7170
     EDDAV:  cpu time    1.9280: real time    1.9287
 BZINTS: Fermi energy:    7.355268;   32.000000 electrons
         Band energy: 0.874692E+02;  BLOECHL correction:    0.000000
       DOS:  cpu time    0.0120: real time    0.0102
    CHARGE:  cpu time    0.1920: real time    0.1928
    MIXING:  cpu time    0.0040: real time    0.0016
    --------------------------------------------
      LOOP:  cpu time    2.9160: real time    2.9122

 eigenvalue-minimisations  :  4320
 total energy-change (2. order) :-0.1461322E-01  (-0.7449010E-02)
 number of electron      32.0000046 magnetization       0.0000000
 augmentation part       13.7605937 magnetization       0.0000000

 Broyden mixing:
  rms(total) = 0.54914E-01    rms(broyden)= 0.54903E-01
  rms(prec ) = 0.80472E-01
  weight for this iteration     100.00

 eigenvalues of (default mixing * dielectric matrix)
  average eigenvalue GAMMA=   1.0787
  2.5346  0.9153  0.6123  0.6123  0.7189

 Free energy of the ion-electron system (eV)
  ---------------------------------------------------
  alpha Z        PSCENC =       130.90692060
  Ewald energy   TEWEN  =     -2604.77031634
  -Hartree energ DENC   =      -633.74106836
  -exchange      EXHF   =         0.00000000
  -V(xc)+E(xc)   XCENC  =       119.12756937
  PAW double counting   =      3202.65742000    -3345.02016465
  entropy T*S    EENTRO =         0.00000000
  eigenvalues    EBANDS =        87.46918010
  atomic energy  EATOM  =      3019.85406633
  Solvation  Ediel_sol  =         0.00000000
  ---------------------------------------------------
  free energy    TOTEN  =       -23.51639296 eV

  energy without entropy =      -23.51639296  energy(sigma->0) =      -23.51639296


--------------------------------------------------------------------------------------------------------




--------------------------------------- Iteration      1(  11)  ---------------------------------------


    POTLOK:  cpu time    0.0600: real time    0.0619
    SETDIJ:  cpu time    0.7040: real time    0.7046
     EDDAV:  cpu time    2.2120: real time    2.2106
 BZINTS: Fermi energy:    7.381564;   32.000000 electrons
         Band energy: 0.879850E+02;  BLOECHL correction:   -0.000000
       DOS:  cpu time    0.0080: real time    0.0097
    CHARGE:  cpu time    0.1960: real time    0.1931
    MIXING:  cpu time    0.0000: real time    0.0017
    --------------------------------------------
      LOOP:  cpu time    3.1800: real time    3.1816

 eigenvalue-minimisations  :  5312
 total energy-change (2. order) : 0.7088391E-03  (-0.7489833E-03)
 number of electron      32.0000046 magnetization       0.0000000
 augmentation part       13.7439146 magnetization       0.0000000

 Broyden mixing:
  rms(total) = 0.10337E-01    rms(broyden)= 0.10331E-01
  rms(prec ) = 0.13199E-01
  weight for this iteration     100.00

 eigenvalues of (default mixing * dielectric matrix)
  average eigenvalue GAMMA=   1.0261
  2.5207  0.9124  0.9124  0.5966  0.5966  0.6179

 Free energy of the ion-electron system (eV)
  ---------------------------------------------------
  alpha Z        PSCENC =       130.90692060
  Ewald energy   TEWEN  =     -2604.77031634
  -Hartree energ DENC   =      -634.21872269
  -exchange      EXHF   =         0.00000000
  -V(xc)+E(xc)   XCENC  =       119.10086597
  PAW double counting   =      3193.64193494    -3336.01543207
  entropy T*S    EENTRO =         0.00000000
  eigenvalues    EBANDS =        87.98499916
  atomic energy  EATOM  =      3019.85406633
  Solvation  Ediel_sol  =         0.00000000
  ---------------------------------------------------
  free energy    TOTEN  =       -23.51568412 eV

  energy without entropy =      -23.51568412  energy(sigma->0) =      -23.51568412


--------------------------------------------------------------------------------------------------------




--------------------------------------- Iteration      1(  12)  ---------------------------------------


    POTLOK:  cpu time    0.0600: real time    0.0620
    SETDIJ:  cpu time    0.7080: real time    0.7056
     EDDAV:  cpu time    1.8600: real time    1.8617
 BZINTS: Fermi energy:    7.387639;   32.000000 electrons
         Band energy: 0.881254E+02;  BLOECHL correction:    0.000000
       DOS:  cpu time    0.0120: real time    0.0102
    CHARGE:  cpu time    0.1920: real time    0.1930
    MIXING:  cpu time    0.0040: real time    0.0017
    --------------------------------------------
[...]
     16       7.1944      1.00000
     17       8.4992      0.00000
     18       9.4082      0.00000
     19      12.3200      0.00000
     20      14.1154      0.00000

 k-point    37 :      -0.4286    0.2857    0.2857
  band No.  band energies     occupation 
      1     -11.3540      1.00000
      2     -11.0147      1.00000
      3       0.8055      1.00000
      4       1.3604      1.00000
      5       2.5734      1.00000
      6       2.5840      1.00000
      7       3.9285      1.00000
      8       3.9358      1.00000
      9       5.1038      1.00000
     10       6.0778      1.00000
     11       6.0977      1.00000
     12       6.2170      1.00000
     13       6.6055      1.00000
     14       6.9547      1.00000
     15       7.1069      1.00000
     16       7.2763      1.00000
     17       8.4407      0.00000
     18       9.4730      0.00000
     19      14.1493      0.00000
     20      15.1080      0.00000

 k-point    38 :      -0.2857    0.2857    0.2857
  band No.  band energies     occupation 
      1     -10.9504      1.00000
      2     -10.8555      1.00000
      3       0.2027      1.00000
      4       1.0735      1.00000
      5       2.3988      1.00000
      6       2.5142      1.00000
      7       3.5204      1.00000
      8       3.7200      1.00000
      9       5.0381      1.00000
     10       6.0566      1.00000
     11       6.2515      1.00000
     12       6.5890      1.00000
     13       6.6355      1.00000
     14       6.9943      1.00000
     15       7.1568      1.00000
     16       7.3201      1.00000
     17       9.0594      0.00000
     18       9.4166      0.00000
     19      14.7213      0.00000
     20      14.8093      0.00000

 k-point    39 :       0.4286    0.4286    0.2857
  band No.  band energies     occupation 
      1     -11.7311      1.00000
      2     -11.2913      1.00000
      3       1.1214      1.00000
      4       2.2346      1.00000
      5       2.8971      1.00000
      6       2.9379      1.00000
      7       3.6089      1.00000
      8       3.7819      1.00000
      9       5.6065      1.00000
     10       5.8027      1.00000
     11       6.3135      1.00000
     12       6.4503      1.00000
     13       6.5824      1.00000
     14       6.7101      1.00000
     15       7.0339      1.00000
     16       7.3935      1.00000
     17       8.8594      0.00000
     18       8.9926      0.00000
     19      12.4056      0.00000
     20      13.9453      0.00000

 k-point    40 :      -0.4286    0.4286    0.2857
  band No.  band energies     occupation 
      1     -11.3855      1.00000
      2     -11.1761      1.00000
      3       1.0899      1.00000
      4       1.4339      1.00000
      5       2.8065      1.00000
      6       3.0914      1.00000
      7       3.2531      1.00000
      8       3.5434      1.00000
      9       5.6477      1.00000
     10       5.8241      1.00000
     11       6.0980      1.00000
     12       6.3605      1.00000
     13       6.6863      1.00000
     14       6.9473      1.00000
     15       7.1231      1.00000
     16       7.2671      1.00000
     17       8.6919      0.00000
     18       9.0622      0.00000
     19      13.8892      0.00000
     20      14.6575      0.00000

 k-point    41 :      -0.2857    0.4286    0.2857
  band No.  band energies     occupation 
      1     -11.0043      1.00000
      2     -10.9362      1.00000
      3       0.6261      1.00000
      4       1.0530      1.00000
      5       2.3873      1.00000
      6       2.7468      1.00000
      7       3.0477      1.00000
      8       3.5096      1.00000
      9       5.4219      1.00000
     10       5.9766      1.00000
     11       6.2338      1.00000
     12       6.5010      1.00000
     13       6.7930      1.00000
     14       7.1112      1.00000
     15       7.1510      1.00000
     16       7.3138      1.00000
     17       8.8655      0.00000
     18       9.1351      0.00000
     19      15.0087      0.00000
     20      15.1769      0.00000

 k-point    42 :      -0.4286   -0.4286    0.2857
  band No.  band energies     occupation 
      1     -11.1935      1.00000
      2     -11.1814      1.00000
      3       0.8909      1.00000
      4       1.1767      1.00000
      5       2.6646      1.00000
      6       2.8778      1.00000
      7       3.6163      1.00000
      8       3.7682      1.00000
      9       5.1631      1.00000
     10       6.0787      1.00000
     11       6.1036      1.00000
     12       6.2911      1.00000
     13       6.6934      1.00000
     14       6.9715      1.00000
     15       7.1526      1.00000
     16       7.2406      1.00000
     17       8.6127      0.00000
     18       9.4300      0.00000
     19      14.1156      0.00000
     20      14.5696      0.00000

 k-point    43 :       0.4286    0.4286    0.4286
  band No.  band energies     occupation 
      1     -11.8066      1.00000
      2     -11.4998      1.00000
      3       1.4457      1.00000
      4       2.4729      1.00000
      5       2.9150      1.00000
      6       2.9151      1.00000
      7       3.7868      1.00000
      8       3.7869      1.00000
      9       5.6883      1.00000
     10       5.6884      1.00000
     11       6.0878      1.00000
     12       6.6279      1.00000
     13       6.6281      1.00000
     14       6.7882      1.00000
     15       7.2887      1.00000
     16       7.2887      1.00000
     17       8.9955      0.00000
     18       8.9959      0.00000
     19      11.9315      0.00000
     20      12.8197      0.00000

 k-point    44 :      -0.4286    0.4286    0.4286
  band No.  band energies     occupation 
      1     -11.5678      1.00000
      2     -11.4662      1.00000
      3       1.5074      1.00000
      4       1.7761      1.00000
      5       2.8488      1.00000
      6       3.2842      1.00000
      7       3.4277      1.00000
      8       3.7739      1.00000
      9       5.5306      1.00000
     10       5.8328      1.00000
     11       6.3195      1.00000
     12       6.4138      1.00000
     13       6.5217      1.00000
     14       6.8608      1.00000
     15       7.1196      1.00000
     16       7.1489      1.00000
     17       8.6093      0.00000
     18       9.2108      0.00000
     19      13.1751      0.00000
     20      13.3321      0.00000


--------------------------------------------------------------------------------------------------------


 soft charge-density along one line, spin component           1
         0         1         2         3         4         5         6         7         8         9
 total charge-density along one line
 
 soft charge-density along one line, spin component           2
         0         1         2         3         4         5         6         7         8         9
 total charge-density along one line
 
 pseudopotential strength for first ion, spin component:           1
 -1.764  -0.001   0.003  -0.001   0.000  -2.394  -0.001   0.003
 -0.001  -1.764  -0.002  -0.001   0.003  -0.001  -2.394  -0.002
  0.003  -0.002  -2.498  -0.002   0.000   0.003  -0.002  -3.094
 -0.001  -0.001  -0.002  -1.764  -0.003  -0.001  -0.001  -0.002
  0.000   0.003   0.000  -0.003  -2.498   0.000   0.003   0.000
 -2.394  -0.001   0.003  -0.001   0.000  -2.954  -0.001   0.003
 -0.001  -2.394  -0.002  -0.001   0.003  -0.001  -2.954  -0.002
  0.003  -0.002  -3.094  -0.002   0.000   0.003  -0.002  -3.622
 -0.001  -0.001  -0.002  -2.394  -0.003  -0.001  -0.001  -0.002
  0.000   0.003   0.000  -0.003  -3.094   0.000   0.003   0.000
  0.001   0.001   0.000   0.001  -0.000   0.001   0.001   0.000
  0.001   0.001   0.000   0.001  -0.000   0.001   0.001   0.000
  0.000   0.000  -0.000  -0.000  -0.000   0.000   0.000  -0.000
 -0.000   0.000   0.000   0.000  -0.000  -0.000   0.000   0.000
  0.000  -0.000  -0.000   0.000  -0.000   0.000  -0.000  -0.000
  0.000   0.000  -0.000  -0.000  -0.000   0.000   0.000  -0.000
 -0.000   0.000   0.000   0.000  -0.000  -0.000   0.000   0.000
  0.000  -0.000  -0.000   0.000  -0.000   0.000  -0.000  -0.000
 pseudopotential strength for first ion, spin component:           2
 -1.102  -0.002  -0.000  -0.002  -0.000  -1.763  -0.001  -0.000
 -0.002  -1.102   0.000  -0.002  -0.000  -0.001  -1.763   0.000
 -0.000   0.000  -0.473   0.000  -0.000  -0.000   0.000  -1.165
 -0.002  -0.002   0.000  -1.102   0.000  -0.001  -0.001   0.000
 -0.000  -0.000  -0.000   0.000  -0.473  -0.000  -0.000  -0.000
 -1.763  -0.001  -0.000  -0.001  -0.000  -2.353  -0.001  -0.000
 -0.001  -1.763   0.000  -0.001  -0.000  -0.001  -2.353   0.000
 -0.000   0.000  -1.165   0.000  -0.000  -0.000   0.000  -1.784
 -0.001  -0.001   0.000  -1.763   0.000  -0.001  -0.001   0.000
 -0.000  -0.000  -0.000   0.000  -1.165  -0.000  -0.000  -0.000
  0.000   0.000  -0.000   0.000   0.000  -0.000  -0.000  -0.000
 -0.000  -0.000  -0.000  -0.000   0.000  -0.000  -0.000  -0.000
  0.000   0.000  -0.000  -0.000  -0.000   0.000   0.000  -0.000
 -0.000   0.000   0.000   0.000  -0.000  -0.000   0.000   0.000
  0.000  -0.000  -0.000   0.000  -0.000   0.000  -0.000  -0.000
  0.000   0.000  -0.000  -0.000  -0.000   0.000   0.000  -0.000
 -0.000   0.000   0.000   0.000  -0.000  -0.000   0.000   0.000
  0.000  -0.000  -0.000   0.000  -0.000   0.000  -0.000  -0.000
 total augmentation occupancy for first ion, spin component:           1
  4.849   0.003   0.008   0.003   0.000  -2.261  -0.002  -0.004  -0.002  -0.000  -0.002   0.000  -0.000  -0.000   0.000  -0.000
  0.003   4.849  -0.004   0.003   0.007  -0.002  -2.261   0.002  -0.002  -0.003  -0.002   0.000   0.000   0.000  -0.000   0.000
  0.008  -0.004   6.605  -0.004   0.000  -0.005   0.003  -5.267   0.003   0.000   0.000  -0.000  -0.000   0.000   0.000   0.000
  0.003   0.003  -0.004   4.849  -0.007  -0.002  -0.002   0.002  -2.261   0.003  -0.002   0.000  -0.000   0.000  -0.000   0.000
  0.000   0.007   0.000  -0.007   6.605  -0.000  -0.005  -0.000   0.005  -5.267   0.000  -0.000   0.000   0.000   0.000  -0.000
 -2.261  -0.002  -0.005  -0.002  -0.000   1.694   0.001   0.002   0.001   0.000   0.001  -0.000   0.000   0.000   0.000   0.000
 -0.002  -2.261   0.003  -0.002  -0.005   0.001   1.694  -0.001   0.001   0.002   0.001  -0.000   0.000  -0.000  -0.000  -0.000
 -0.004   0.002  -5.267   0.002   0.000   0.002  -0.001   5.219  -0.001  -0.000   0.000   0.000  -0.000  -0.000   0.000   0.000
 -0.002  -0.002   0.003  -2.261   0.005   0.001   0.001  -0.001   1.694  -0.002   0.001  -0.000  -0.000   0.000  -0.000   0.000
 -0.000  -0.003  -0.000   0.003  -5.267   0.000   0.002   0.000  -0.002   5.219   0.000   0.000  -0.000  -0.000   0.000   0.000
 -0.002  -0.002   0.000  -0.002   0.000   0.001   0.001   0.000   0.001   0.000   2.014  -0.425   0.000   0.000   0.000   0.000
  0.000   0.000  -0.000   0.000   0.000  -0.000  -0.000   0.000  -0.000   0.000  -0.425   0.110  -0.000   0.000  -0.000  -0.000
 -0.000   0.000   0.000   0.000   0.000   0.000   0.000  -0.000   0.000   0.000  -0.000   0.000   0.297  -0.000  -0.000  -0.054
  0.000   0.000   0.000   0.000   0.000   0.000  -0.000  -0.000   0.000  -0.000  -0.000   0.000  -0.000   0.297  -0.000   0.000
  0.000  -0.000  -0.000   0.000   0.000   0.000   0.000   0.000  -0.000   0.000   0.000   0.000  -0.000  -0.000   0.297   0.000
 -0.000  -0.000   0.000   0.000  -0.000   0.000  -0.000  -0.000   0.000  -0.000   0.000   0.000  -0.054   0.000   0.000   0.011
 -0.000  -0.000   0.000   0.000   0.000   0.000  -0.000   0.000   0.000  -0.000   0.000   0.000   0.000  -0.054   0.000  -0.000
  0.000  -0.000  -0.000   0.000   0.000   0.000  -0.000  -0.000   0.000  -0.000   0.000  -0.000   0.000   0.000  -0.054  -0.000
 total augmentation occupancy for first ion, spin component:           2
  0.404  -0.000  -0.027  -0.000   0.000  -0.249   0.000   0.019   0.000  -0.000  -0.002   0.002  -0.000   0.000   0.000  -0.000
 -0.000   0.404   0.013  -0.000  -0.023   0.000  -0.249  -0.009   0.000   0.016  -0.002   0.002   0.000   0.000   0.000   0.000
 -0.027   0.013   4.477   0.013   0.000   0.020  -0.010  -2.577  -0.010   0.000   0.000  -0.000   0.000   0.000   0.000   0.000
 -0.000  -0.000   0.013   0.404   0.023   0.000   0.000  -0.009  -0.249  -0.016  -0.002   0.002   0.000   0.000   0.000   0.000
  0.000  -0.023  -0.000   0.023   4.477  -0.000   0.017  -0.000  -0.017  -2.577   0.000   0.000   0.000  -0.000   0.000   0.000
 -0.249   0.000   0.020   0.000  -0.000   0.100   0.000  -0.014   0.000   0.000   0.002  -0.002   0.000   0.000   0.000   0.000
  0.000  -0.249  -0.010   0.000   0.017   0.000   0.100   0.007   0.000  -0.012   0.002  -0.002  -0.000   0.000   0.000  -0.000
  0.019  -0.009  -2.577  -0.009   0.000  -0.014   0.007   1.381   0.007  -0.000   0.000   0.000   0.000   0.000  -0.000   0.000
  0.000   0.000  -0.010  -0.249  -0.017   0.000   0.000   0.007   0.100   0.012   0.002  -0.002   0.000   0.000   0.000  -0.000
 -0.000   0.016  -0.000  -0.016  -2.577   0.000  -0.012   0.000   0.012   1.381  -0.000   0.000   0.000   0.000  -0.000   0.000
 -0.002  -0.002   0.000  -0.002   0.000   0.002   0.002   0.000   0.002   0.000  -0.151   0.051  -0.000   0.000   0.000   0.000
  0.002   0.002  -0.000   0.002  -0.000  -0.002  -0.002  -0.000  -0.002  -0.000   0.051  -0.015  -0.000   0.000   0.000   0.000
 -0.000  -0.000   0.000   0.000   0.000  -0.000   0.000   0.000   0.000   0.000   0.000   0.000  -0.015   0.000   0.000   0.004
 -0.000   0.000   0.000   0.000  -0.000   0.000  -0.000   0.000   0.000   0.000  -0.000   0.000   0.000  -0.015   0.000  -0.000
 -0.000  -0.000   0.000  -0.000   0.000   0.000   0.000   0.000  -0.000   0.000  -0.000   0.000   0.000   0.000  -0.015  -0.000
  0.000   0.000   0.000   0.000   0.000   0.000   0.000   0.000   0.000  -0.000  -0.000   0.000   0.004  -0.000  -0.000  -0.001
 -0.000   0.000  -0.000  -0.000   0.000   0.000   0.000   0.000  -0.000   0.000   0.000   0.000  -0.000   0.004  -0.000   0.000
  0.000   0.000  -0.000   0.000   0.000  -0.000  -0.000   0.000   0.000  -0.000   0.000   0.000  -0.000  -0.000   0.004   0.000


------------------------ aborting loop because EDIFF is reached ----------------------------------------


    CHARGE:  cpu time    0.1920: real time    0.1928
    FORLOC:  cpu time    0.0040: real time    0.0026
    FORNL :  cpu time    0.1320: real time    0.1331
    STRESS:  cpu time    0.3360: real time    0.3359
    FORCOR:  cpu time    0.0600: real time    0.0623
    FORHAR:  cpu time    0.0080: real time    0.0067
    MIXING:  cpu time    0.0040: real time    0.0025
    OFIELD:  cpu time    0.0000: real time    0.0000

  FORCE on cell =-STRESS in cart. coord.  units (eV):
  Direction    XX          YY          ZZ          XY          YZ          ZX
  --------------------------------------------------------------------------------------
  Alpha Z   130.90692   130.90692   130.90692
  Ewald    -868.25805  -868.25805  -868.25805     0.00000    -0.00000     0.00000
  Hartree   211.52173   211.52173   211.52173    -0.00503    -0.00503    -0.00503
  E(xc)    -170.21891  -170.21891  -170.21891     0.00051     0.00051     0.00051
  Local     -21.54788   -21.54788   -21.54788    -0.01549    -0.01549    -0.01549
  n-local   -66.07165   -69.17589   -67.00059     0.23996     0.28514    -0.60668
  augment   368.88476   368.88476   368.88476    -0.04369    -0.04369    -0.04369
  Kinetic   412.49291   418.75183   415.21934    -0.42221     0.00092     0.58237
  Fock        0.00000     0.00000     0.00000     0.00000     0.00000     0.00000
  -------------------------------------------------------------------------------------
  Total      -0.63945    -0.63945    -0.63945    -0.05727    -0.05727    -0.05727
  in kB     -28.25783   -28.25783   -28.25783    -2.53086    -2.53086    -2.53086
  external pressure =      -28.26 kB  Pullay stress =        0.00 kB


 VOLUME and BASIS-vectors are now :
 -----------------------------------------------------------------------------
  energy-cutoff  :      400.00
  volume of cell :       36.26
      direct lattice vectors                 reciprocal lattice vectors
     4.170000000  2.085000000  2.085000000     0.359712230 -0.119904077 -0.119904077
     2.085000000  4.170000000  2.085000000    -0.119904077  0.359712230 -0.119904077
     2.085000000  2.085000000  4.170000000    -0.119904077 -0.119904077  0.359712230

  length of vectors
     5.107186114  5.107186114  5.107186114     0.397676833  0.397676833  0.397676833


 FORCES acting on ions
    electron-ion (+dipol)            ewald-force                    non-local-force                 convergence-correction
 -----------------------------------------------------------------------------------------------
   -.965E-13 -.908E-13 -.922E-13   0.000E+00 -.284E-13 -.568E-13   0.114E-24 -.257E-23 0.106E-23   0.309E-13 0.909E-14 0.248E-13
   0.118E-11 0.119E-11 0.157E-11   0.568E-13 0.284E-13 0.000E+00   0.186E-23 -.104E-23 0.405E-24   -.611E-13 -.597E-13 -.451E-13
   -.217E-12 0.282E-12 0.792E-13   -.425E-13 -.131E-13 0.168E-13   -.607E-24 -.174E-23 0.853E-24   -.576E-13 -.402E-13 -.527E-13
   0.975E-12 0.103E-11 0.269E-12   -.151E-13 0.133E-13 0.426E-13   0.284E-23 0.284E-23 -.932E-24   0.738E-13 0.645E-13 0.382E-13
 -----------------------------------------------------------------------------------------------
   0.184E-11 0.241E-11 0.182E-11   -.797E-15 0.223E-15 0.256E-14   0.421E-23 -.251E-23 0.138E-23   -.140E-13 -.263E-13 -.348E-13
 
 
 POSITION                                       TOTAL-FORCE (eV/Angst)
 -----------------------------------------------------------------------------------
      0.00000      0.00000      0.00000        -0.000000      0.000000     -0.000000
      4.17000      4.17000      4.17000         0.000000     -0.000000      0.000000
      2.08500      2.08500      2.08500        -0.000000     -0.000000      0.000000
      6.25500      6.25500      6.25500         0.000000     -0.000000     -0.000000
 -----------------------------------------------------------------------------------
    total drift:                                0.000000      0.000000      0.000000


--------------------------------------------------------------------------------------------------------



  FREE ENERGIE OF THE ION-ELECTRON SYSTEM (eV)
  ---------------------------------------------------
  free  energy   TOTEN  =       -23.51588547 eV

  energy  without entropy=      -23.51588547  energy(sigma->0) =      -23.51588547
 


--------------------------------------------------------------------------------------------------------


    POTLOK:  cpu time    0.8040: real time    0.8039


--------------------------------------------------------------------------------------------------------


 writing wavefunctions
     LOOP+:  cpu time   54.0200: real time   54.0732
    4ORBIT:  cpu time    0.0000: real time    0.0000
 BZINTS: Fermi energy:    7.393859;   32.000000 electrons
         Band energy: 0.882660E+02;  BLOECHL correction:    0.000000

 total amount of memory used by VASP MPI-rank0    50711. kBytes
=======================================================================

   base      :      30000. kBytes
   nonl-proj :       8507. kBytes
   fftplans  :       1619. kBytes
   grid      :       5393. kBytes
   one-center:        124. kBytes
   wavefun   :       5068. kBytes
 
  
  
 General timing and accounting informations for this job:
 ========================================================
  
                  Total CPU time used (sec):       61.328
                            User time (sec):       59.908
                          System time (sec):        1.420
                         Elapsed time (sec):       61.432
  
                   Maximum memory used (kb):       87372.
                   Average memory used (kb):           0.
  
                          Minor page faults:       293892
                          Major page faults:            5
                 Voluntary context switches:          751
