 running on    4 total cores
 distrk:  each k-point on    4 cores,    1 groups
 distr:  one band on    1 cores,    4 groups
 using from now: INCAR     
 vasp.6.1.1 19Jun20 (build Jul 17 2020 22:48:28) complex                        
  
 POSCAR found type information on POSCAR NiO 
 POSCAR found :  2 types and       4 ions
 scaLAPACK will be used
 LDA part: xc-table for Pade appr. of Perdew
 generate k-points for:    7    7    7
 POSCAR, INCAR and KPOINTS ok, starting setup
 FFT: planning ...
 WAVECAR not read
 entering main loop
       N       E                     dE             d eps       ncg     rms          rms(c)
DAV:   1     0.226133058673E+03    0.22613E+03   -0.13321E+04  3632   0.174E+03
DAV:   2    -0.209209591905E+01   -0.22823E+03   -0.21293E+03  3668   0.372E+02
DAV:   3    -0.269474029625E+02   -0.24855E+02   -0.23716E+02  4004   0.141E+02
DAV:   4    -0.276791556938E+02   -0.73175E+00   -0.72750E+00  3912   0.263E+01
DAV:   5    -0.277005203165E+02   -0.21365E-01   -0.21368E-01  4236   0.411E+00    0.199E+01
DAV:   6    -0.249176467193E+02    0.27829E+01   -0.43832E+01  5344   0.109E+02    0.217E+01
DAV:   7    -0.233267328535E+02    0.15909E+01   -0.72424E+00  4464   0.833E+01    0.913E+00
DAV:   8    -0.235594492571E+02   -0.23272E+00   -0.21952E+00  4000   0.130E+01    0.597E+00
DAV:   9    -0.235017797358E+02    0.57670E-01   -0.16900E-01  5600   0.104E+01    0.143E+00
DAV:  10    -0.235163929564E+02   -0.14613E-01   -0.74490E-02  4320   0.368E+00    0.549E-01
DAV:  11    -0.235156841173E+02    0.70884E-03   -0.74898E-03  5312   0.225E+00    0.103E-01
DAV:  12    -0.235159078016E+02   -0.22368E-03   -0.22179E-03  4272   0.427E-01    0.689E-02
DAV:  13    -0.235158827926E+02    0.25009E-04   -0.96696E-05  4844   0.115E-01    0.330E-02
DAV:  14    -0.235158935003E+02   -0.10708E-04   -0.11605E-04  5140   0.107E-01    0.275E-02
DAV:  15    -0.235158858145E+02    0.76858E-05   -0.22006E-05  5696   0.663E-02    0.892E-03
DAV:  16    -0.235158855517E+02    0.26285E-06   -0.70296E-06  4872   0.267E-02    0.264E-03
DAV:  17    -0.235158854937E+02    0.57947E-07   -0.28383E-07  3692   0.112E-02    0.983E-04
DAV:  18    -0.235158854633E+02    0.30457E-07   -0.14219E-07  5060   0.343E-03    0.412E-04
DAV:  19    -0.235158854686E+02   -0.53515E-08   -0.47115E-09  1812   0.921E-04
   1 F= -.23515885E+02 E0= -.23515885E+02  d E =0.000000E+00  mag=     0.0000
 writing wavefunctions
