Ce                                      
   4.72000000000000     
     0.000000    0.500000    0.500000
     0.500000    0.000000    0.500000
     0.500000    0.500000    0.000000
   Ce
     1
Direct
  0.000000  0.000000  0.000000
 
   28   28   28
 -8.0851      1.0751      23.199      46.052      58.861      58.456      48.920      36.503      25.244      16.475    
  10.537      7.1413      5.3166      4.4056      4.1233      4.4056      5.3166      7.1413      10.537      16.475    
  25.244      36.503      48.920      58.456      58.861      46.052      23.199      1.0751      1.0751      16.651    
  38.790      55.749      60.623      54.298      42.411      30.232      20.216      12.952      8.4976      6.0459    
  4.7602      4.1929      4.1921      4.7592      6.0462      8.4986      12.952      20.215      30.230      42.405    
  54.288      60.617      55.760      38.822      16.689      1.0920      23.199      38.790      54.295      61.536    
  58.130      47.471      34.851      23.803      15.485      10.030      6.9122      5.2261      4.3839      4.1235    
  4.3836      5.2261      6.9124      10.030      15.486      23.803      34.849      47.462      58.117      61.533    
  54.314      38.826      23.229      16.689      46.052      55.749      61.536      59.564      50.547      38.349    
  26.794      17.753      11.551      7.8330      5.7564      4.6570      4.1732      4.1734      4.6575      5.7564    
  7.8324      11.550      17.754      26.796      38.350      50.542      59.556      61.532      55.753      46.061    
  38.826      38.822      58.861      60.623      58.130      50.547      39.686      28.557      19.359      12.796    
  8.6718      6.2787      4.9604      4.2983      4.0945      4.2982      4.9604      6.2787      8.6713      12.795    
  19.359      28.559      39.691      50.551      58.129      60.616      58.851      55.753      54.314      55.760    
  58.456      54.298      47.471      38.349      28.557      19.945      13.503      9.2677      6.7042      5.2353    
  4.4472      4.1013      4.1010      4.4468      5.2354      6.7046      9.2670      13.500      19.941      28.556    
  38.354      47.481      54.307      58.460      60.616      61.532      61.533      60.617      48.920      42.411    
  34.851      26.794      19.359      13.503      9.4844      6.9457      5.4285      4.5738      4.1440      4.0133    
  4.1441      4.5739      5.4288      6.9467      9.4846      13.500      19.351      26.786      34.850      42.420    
  48.938      54.307      58.129      59.556      58.117      54.288      36.503      30.232      23.803      17.753    
  12.796      9.2677      6.9457      5.4985      4.6463      4.1849      3.9849      3.9850      4.1850      4.6461    
  5.4990      6.9484      9.2716      12.797      17.746      23.790      30.221      36.504      42.420      47.481    
  50.551      50.542      47.462      42.405      25.244      20.216      15.485      11.551      8.6718      6.7042    
  5.4285      4.6463      4.2012      3.9802      3.9143      3.9801      4.2006      4.6453      5.4284      6.7076    
  8.6796      11.559      15.486      20.206      25.229      30.221      34.850      38.354      39.691      38.350    
  34.849      30.230      16.475      12.952      10.030      7.8330      6.2787      5.2353      4.5738      4.1849    
  3.9802      3.8951      3.8950      3.9800      4.1841      4.5712      5.2316      6.2780      7.8399      10.043    
  12.964      16.477      20.206      23.790      26.786      28.556      28.559      26.796      23.803      20.215    
  10.537      8.4976      6.9122      5.7564      4.9604      4.4472      4.1440      3.9849      3.9143      3.8950    
  3.9145      3.9857      4.1440      4.4434      4.9521      5.7484      6.9121      8.5084      10.554      12.964    
  15.486      17.746      19.351      19.941      19.359      17.754      15.486      12.952      7.1413      6.0459    
  5.2261      4.6570      4.2983      4.1013      4.0133      3.9850      3.9801      3.9800      3.9857      4.0158    
  4.1045      4.2980      4.6495      5.2130      6.0349      7.1403      8.5084      10.043      11.559      12.797    
  13.500      13.500      12.795      11.550      10.030      8.4986      5.3166      4.7602      4.3839      4.1732    
  4.0945      4.1010      4.1441      4.1850      4.2006      4.1841      4.1440      4.1045      4.1020      4.1803    
  4.3834      4.7488      5.3000      6.0349      6.9121      7.8399      8.6796      9.2716      9.4846      9.2670    
  8.6713      7.8324      6.9124      6.0462      4.4056      4.1929      4.1235      4.1734      4.2982      4.4468    
  4.5739      4.6461      4.6453      4.5712      4.4434      4.2980      4.1803      4.1358      4.2025      4.4052    
  4.7488      5.2130      5.7484      6.2780      6.7076      6.9484      6.9467      6.7046      6.2787      5.7564    
  5.2261      4.7592      4.1233      4.1921      4.3836      4.6575      4.9604      5.2354      5.4288      5.4990    
  5.4284      5.2316      4.9521      4.6495      4.3834      4.2025      4.1386      4.2025      4.3834      4.6495    
  4.9521      5.2316      5.4284      5.4990      5.4288      5.2354      4.9604      4.6575      4.3836      4.1921    
  4.4056      4.7592      5.2261      5.7564      6.2787      6.7046      6.9467      6.9484      6.7076      6.2780    
  5.7484      5.2130      4.7488      4.4052      4.2025      4.1358      4.1803      4.2980      4.4434      4.5712    
  4.6453      4.6461      4.5739      4.4468      4.2982      4.1734      4.1235      4.1929      5.3166      6.0462    
  6.9124      7.8324      8.6713      9.2670      9.4846      9.2716      8.6796      7.8399      6.9121      6.0349    
  5.3000      4.7488      4.3834      4.1803      4.1020      4.1045      4.1440      4.1841      4.2006      4.1850    
  4.1441      4.1010      4.0945      4.1732      4.3839      4.7602      7.1413      8.4986      10.030      11.550    
  12.795      13.500      13.500      12.797      11.559      10.043      8.5084      7.1403      6.0349      5.2130    
  4.6495      4.2980      4.1045      4.0158      3.9857      3.9800      3.9801      3.9850      4.0133      4.1013    
  4.2983      4.6570      5.2261      6.0459      10.537      12.952      15.486      17.754      19.359      19.941    
  19.351      17.746      15.486      12.964      10.554      8.5084      6.9121      5.7484      4.9521      4.4434    
  4.1440      3.9857      3.9145      3.8950      3.9143      3.9849      4.1440      4.4472      4.9604      5.7564    
  6.9122      8.4976      16.475      20.215      23.803      26.796      28.559      28.556      26.786      23.790    
  20.206      16.477      12.964      10.043      7.8399      6.2780      5.2316      4.5712      4.1841      3.9800    
  3.8950      3.8951      3.9802      4.1849      4.5738      5.2353      6.2787      7.8330      10.030      12.952    
  25.244      30.230      34.849      38.350      39.691      38.354      34.850      30.221      25.229      20.206    
  15.486      11.559      8.6796      6.7076      5.4284      4.6453      4.2006      3.9801      3.9143      3.9802    
  4.2012      4.6463      5.4285      6.7042      8.6718      11.551      15.485      20.216      36.503      42.405    
  47.462      50.542      50.551      47.481      42.420      36.504      30.221      23.790      17.746      12.797    
  9.2716      6.9484      5.4990      4.6461      4.1850      3.9850      3.9849      4.1849      4.6463      5.4985    
  6.9457      9.2677      12.796      17.753      23.803      30.232      48.920      54.288      58.117      59.556    
  58.129      54.307      48.938      42.420      34.850      26.786      19.351      13.500      9.4846      6.9467    
  5.4288      4.5739      4.1441      4.0133      4.1440      4.5738      5.4285      6.9457      9.4844      13.503    
  19.359      26.794      34.851      42.411      58.456      60.617      61.533      61.532      60.616      58.460    
  54.307      47.481      38.354      28.556      19.941      13.500      9.2670      6.7046      5.2354      4.4468    
  4.1010      4.1013      4.4472      5.2353      6.7042      9.2677      13.503      19.945      28.557      38.349    
  47.471      54.298      58.861      55.760      54.314      55.753      58.851      60.616      58.129      50.551    
  39.691      28.559      19.359      12.795      8.6713      6.2787      4.9604      4.2982      4.0945      4.2983    
  4.9604      6.2787      8.6718      12.796      19.359      28.557      39.686      50.547      58.130      60.623    
  46.052      38.822      38.826      46.061      55.753      61.532      59.556      50.542      38.350      26.796    
  17.754      11.550      7.8324      5.7564      4.6575      4.1734      4.1732      4.6570      5.7564      7.8330    
  11.551      17.753      26.794      38.349      50.547      59.564      61.536      55.749      23.199      16.689    
  23.229      38.826      54.314      61.533      58.117      47.462      34.849      23.803      15.486      10.030    
  6.9124      5.2261      4.3836      4.1235      4.3839      5.2261      6.9122      10.030      15.485      23.803    
  34.851      47.471      58.130      61.536      54.295      38.790      1.0751      1.0920      16.689      38.822    
  55.760      60.617      54.288      42.405      30.230      20.215      12.952      8.4986      6.0462      4.7592    
  4.1921      4.1929      4.7602      6.0459      8.4976      12.952      20.216      30.232      42.411      54.298    
  60.623      55.749      38.790      16.651      1.0751      16.651      38.790      55.749      60.623      54.298    
  42.411      30.232      20.216      12.952      8.4976      6.0459      4.7602      4.1929      4.1921      4.7592    
  6.0462      8.4986      12.952      20.215      30.230      42.405      54.288      60.617      55.760      38.822    
  16.689      1.0920      16.651      34.353      52.280      61.368      58.891      48.435      35.673      24.403    
  15.872      10.240      7.0210      5.2839      4.4168      4.1486      4.4164      5.2839      7.0213      10.240    
  15.872      24.402      35.669      48.421      58.874      61.367      52.312      34.410      16.696      9.3037    
  38.790      52.280      61.479      61.481      52.965      40.406      28.260      18.699      12.092      8.1192    
  5.9093      4.7426      4.2289      4.2291      4.7430      5.9094      8.1186      12.091      18.700      28.262    
  40.402      52.951      61.467      61.481      52.306      38.824      29.059      29.043      55.749      61.368    
  61.481      54.690      43.287      31.136      21.016      13.777      9.2063      6.5684      5.1229      4.3977    
  4.1741      4.3974      5.1229      6.5687      9.2061      13.777      21.018      31.140      43.288      54.685    
  61.471      61.359      55.745      49.134      46.268      49.134      60.623      58.891      52.965      43.287    
  32.222      22.353      14.968      10.098      7.1646      5.4957      4.6036      4.2115      4.2111      4.6031    
  5.4959      7.1650      10.097      14.967      22.353      32.227      43.294      52.968      58.885      60.609    
  59.756      58.600      58.606      59.771      54.298      48.435      40.406      31.136      22.353      15.400    
  10.604      7.5867      5.7971      4.7948      4.2906      4.1367      4.2906      4.7948      5.7973      7.5868    
  10.603      15.396      22.349      31.136      40.413      48.444      54.304      58.167      60.473      61.274    
  60.476      58.166      42.411      35.673      28.260      21.016      14.968      10.604      7.7396      5.9669    
  4.9296      4.3683      4.1239      4.1241      4.3686      4.9296      5.9675      7.7412      10.604      14.964    
  21.008      28.252      35.673      42.420      48.232      52.891      55.639      55.634      52.878      48.217    
  30.232      24.403      18.699      13.777      10.098      7.5867      5.9669      4.9781      4.4149      4.1331    
  4.0484      4.1332      4.4147      4.9779      5.9682      7.5906      10.103      13.778      18.692      24.390    
  30.222      35.794      40.824      44.595      46.030      44.586      40.815      35.794      20.216      15.872    
  12.092      9.2063      7.1646      5.7971      4.9296      4.4149      4.1390      4.0219      4.0219      4.1387    
  4.4139      4.9281      5.7971      7.1691      9.2159      12.101      15.873      20.207      24.657      28.887    
  32.445      34.566      34.566      32.448      28.897      24.671      12.952      10.240      8.1192      6.5684    
  5.4957      4.7948      4.3683      4.1331      4.0219      3.9901      4.0219      4.1331      4.3670      4.7909    
  5.4909      6.5679      8.1271      10.254      12.964      16.085      19.246      22.064      24.090      24.842    
  24.098      22.076      19.254      16.083      8.4976      7.0210      5.9093      5.1229      4.6036      4.2906    
  4.1239      4.0484      4.0219      4.0219      4.0491      4.1254      4.2905      4.5985      5.1130      5.9005    
  7.0209      8.5083      10.338      12.384      14.392      16.019      16.940      16.944      16.024      14.392    
  12.374      10.322      6.0459      5.2839      4.7426      4.3977      4.2115      4.1367      4.1241      4.1332    
  4.1387      4.1331      4.1254      4.1403      4.2155      4.3973      4.7342      5.2700      6.0349      7.0302    
  8.2080      9.4521      10.580      11.377      11.666      11.375      10.573      9.4410      8.1992      7.0311    
  4.7602      4.4168      4.2289      4.1741      4.2111      4.2906      4.3686      4.4147      4.4139      4.3670    
  4.2905      4.2155      4.1832      4.2370      4.4162      4.7487      5.2436      5.8812      6.6048      7.3184    
  7.8986      8.2253      8.2229      7.8925      7.3124      6.6051      5.8913      5.2592      4.1929      4.1486    
  4.2291      4.3974      4.6031      4.7948      4.9296      4.9779      4.9281      4.7909      4.5985      4.3973    
  4.2370      4.1615      4.2025      4.3737      4.6674      5.0514      5.4708      5.8528      6.1212      6.2171    
  6.1196      5.8534      5.4771      5.0625      4.6766      4.3741      4.1921      4.4164      4.7430      5.1229    
  5.4959      5.7973      5.9675      5.9682      5.7971      5.4909      5.1130      4.7342      4.4162      4.2025    
  4.1144      4.1509      4.2902      4.4946      4.7150      4.8996      5.0043      5.0047      4.9022      4.7211    
  4.5010      4.2905      4.1416      4.0999      4.7592      5.2839      5.9094      6.5687      7.1650      7.5868    
  7.7412      7.5906      7.1691      6.5679      5.9005      5.2700      4.7487      4.3737      4.1509      4.0628    
  4.0766      4.1514      4.2439      4.3166      4.3443      4.3181      4.2462      4.1516      4.0713      4.0525    
  4.1422      4.3741      6.0462      7.0213      8.1186      9.2061      10.097      10.603      10.604      10.103    
  9.2159      8.1271      7.0209      6.0349      5.2436      4.6674      4.2902      4.0766      3.9823      3.9616    
  3.9736      3.9879      3.9883      3.9737      3.9593      3.9768      4.0710      4.2907      4.6775      5.2592    
  8.4986      10.240      12.091      13.777      14.967      15.396      14.964      13.778      12.101      10.254    
  8.5083      7.0302      5.8812      5.0514      4.4946      4.1514      3.9616      3.8707      3.8354      3.8270    
  3.8351      3.8693      3.9594      4.1516      4.5005      5.0624      5.8910      7.0311      12.952      15.872    
  18.700      21.018      22.353      22.349      21.008      18.692      15.873      12.964      10.338      8.2080    
  6.6048      5.4708      4.7150      4.2439      3.9736      3.8354      3.7796      3.7796      3.8351      3.9736    
  4.2464      4.7211      5.4772      6.6050      8.1983      10.322      20.215      24.402      28.262      31.140    
  32.227      31.136      28.252      24.390      20.207      16.085      12.384      9.4521      7.3184      5.8528    
  4.8996      4.3166      3.9879      3.8270      3.7796      3.8271      3.9884      4.3182      4.9021      5.8534    
  7.3131      9.4411      12.373      16.083      30.230      35.669      40.402      43.288      43.294      40.413    
  35.673      30.222      24.657      19.246      14.392      10.580      7.8986      6.1212      5.0043      4.3443    
  3.9883      3.8351      3.8351      3.9884      4.3449      5.0045      6.1190      7.8929      10.574      14.392    
  19.255      24.671      42.405      48.421      52.951      54.685      52.968      48.444      42.420      35.794    
  28.887      22.064      16.019      11.377      8.2253      6.2171      5.0047      4.3181      3.9737      3.8693    
  3.9736      4.3182      5.0045      6.2156      8.2227      11.377      16.024      22.075      28.897      35.794    
  54.288      58.874      61.467      61.471      58.885      54.304      48.232      40.824      32.445      24.090    
  16.940      11.666      8.2229      6.1196      4.9022      4.2462      3.9593      3.9594      4.2464      4.9021    
  6.1190      8.2227      11.669      16.946      24.096      32.446      40.816      48.217      60.617      61.367    
  61.481      61.359      60.609      58.167      52.891      44.595      34.566      24.842      16.944      11.375    
  7.8925      5.8534      4.7211      4.1516      3.9768      4.1516      4.7211      5.8534      7.8929      11.377    
  16.946      24.843      34.562      44.586      52.883      58.166      55.760      52.312      52.306      55.745    
  59.756      60.473      55.639      46.030      34.566      24.098      16.024      10.573      7.3124      5.4771    
  4.5010      4.0713      4.0710      4.5005      5.4772      7.3131      10.574      16.024      24.096      34.562    
  46.026      55.639      60.481      59.771      38.822      34.410      38.824      49.134      58.600      61.274    
  55.634      44.586      32.448      22.076      14.392      9.4410      6.6051      5.0625      4.2905      4.0525    
  4.2907      5.0624      6.6050      9.4411      14.392      22.075      32.446      44.586      55.639      61.282    
  58.605      49.134      16.689      16.696      29.059      46.268      58.606      60.476      52.878      40.815    
  28.897      19.254      12.374      8.1992      5.8913      4.6766      4.1416      4.1422      4.6775      5.8910    
  8.1983      12.373      19.255      28.897      40.816      52.883      60.481      58.605      46.257      29.043    
  1.0920      9.3037      29.043      49.134      59.771      58.166      48.217      35.794      24.671      16.083    
  10.322      7.0311      5.2592      4.3741      4.0999      4.3741      5.2592      7.0311      10.322      16.083    
  24.671      35.794      48.217      58.166      59.771      49.134      29.043      9.3037      23.199      38.790    
  54.295      61.536      58.130      47.471      34.851      23.803      15.485      10.030      6.9122      5.2261    
  4.3839      4.1235      4.3836      5.2261      6.9124      10.030      15.486      23.803      34.849      47.462    
  58.117      61.533      54.314      38.826      23.229      16.689      38.790      52.280      61.479      61.481    
  52.965      40.406      28.260      18.699      12.092      8.1192      5.9093      4.7426      4.2289      4.2291    
  4.7430      5.9094      8.1186      12.091      18.700      28.262      40.402      52.951      61.467      61.481    
  52.306      38.824      29.059      29.043      54.295      61.479      62.654      56.199      44.601      32.068    
  21.608      14.128      9.3970      6.6714      5.1805      4.4330      4.2023      4.4326      5.1806      6.6718    
  9.3970      14.128      21.611      32.071      44.599      56.189      62.641      61.471      54.296      46.262    
  42.816      46.257      61.536      61.481      56.199      46.195      34.344      23.713      15.786      10.560    
  7.4192      5.6391      4.6896      4.2720      4.2716      4.6890      5.6395      7.4199      10.559      15.786    
  23.716      34.351      46.201      56.196      61.464      61.510      58.581      55.992      56.001      58.605    
  58.130      52.965      44.601      34.344      24.492      16.724      11.383      8.0292      6.0498      4.9455    
  4.3903      4.2205      4.3903      4.9455      6.0498      8.0289      11.381      16.723      24.494      34.351    
  44.611      52.967      58.117      60.457      61.236      61.404      61.255      60.481      47.471      40.406    
  32.068      23.713      16.724      11.680      8.3738      6.3375      5.1520      4.5115      4.2318      4.2320    
  4.5117      5.1519      6.3376      8.3741      11.679      16.720      23.709      32.069      40.414      47.479    
  52.886      56.748      58.887      58.889      56.751      52.883      34.851      28.260      21.608      15.786    
  11.383      8.3738      6.4410      5.2670      4.5995      4.2643      4.1630      4.2644      4.5994      5.2672    
  6.4425      8.3761      11.383      15.781      21.600      28.254      34.852      40.824      45.921      49.609    
  50.993      49.601      45.910      40.816      23.803      18.699      14.128      10.560      8.0292      6.3375    
  5.2670      4.6313      4.2878      4.1404      4.1404      4.2876      4.6308      5.2669      6.3393      8.0339    
  10.565      14.129      18.692      23.792      28.889      33.622      37.548      39.875      39.872      37.543    
  33.623      28.897      15.485      12.092      9.3970      7.4192      6.0498      5.1520      4.5995      4.2878    
  4.1360      4.0916      4.1360      4.2873      4.5980      5.1498      6.0496      7.4245      9.4073      12.101    
  15.487      19.246      22.972      26.282      28.675      29.566      28.679      26.291      22.984      19.255    
  10.030      8.1192      6.6714      5.6391      4.9455      4.5115      4.2643      4.1404      4.0916      4.0915    
  4.1406      4.2643      4.5096      4.9405      5.6337      6.6709      8.1271      10.043      12.384      14.966    
  17.442      19.436      20.571      20.575      19.445      17.449      14.965      12.373      6.9122      5.9093    
  5.1805      4.6896      4.3903      4.2318      4.1630      4.1404      4.1360      4.1406      4.1642      4.2338    
  4.3900      4.6838      5.1701      5.9006      6.9121      8.2079      9.7294      11.331      12.780      13.802    
  14.173      13.805      12.779      11.323      9.7164      8.1983      5.2261      4.7426      4.4330      4.2720    
  4.2205      4.2320      4.2644      4.2876      4.2873      4.2643      4.2338      4.2248      4.2766      4.4326    
  4.7342      5.2129      5.8812      6.7188      7.6597      8.5852      9.3384      9.7638      9.7624      9.3333    
  8.5769      7.6528      6.7195      5.8910      4.3839      4.2289      4.2023      4.2716      4.3903      4.5117    
  4.5994      4.6308      4.5980      4.5096      4.3900      4.2766      4.2120      4.2370      4.3832      4.6672    
  5.0835      5.5989      6.1506      6.6504      7.0017      7.1273      6.9982      6.6463      6.1509      5.6069    
  5.0966      4.6775      4.1235      4.2291      4.4326      4.6890      4.9455      5.1519      5.2672      5.2669    
  5.1498      4.9405      4.6838      4.4326      4.2370      4.1357      4.1507      4.2842      4.5172      4.8111    
  5.1122      5.3594      5.4985      5.4981      5.3598      5.1166      4.8194      4.5245      4.2844      4.1422    
  4.3836      4.7430      5.1806      5.6395      6.0498      6.3376      6.4425      6.3393      6.0496      5.6337    
  5.1701      4.7342      4.3832      4.1507      4.0456      4.0555      4.1513      4.2936      4.4380      4.5438    
  4.5826      4.5452      4.4418      4.2981      4.1517      4.0480      4.0333      4.1416      5.2261      5.9094    
  6.6718      7.4199      8.0289      8.3741      8.3761      8.0339      7.4245      6.6709      5.9006      5.2129    
  4.6672      4.2842      4.0555      3.9538      3.9421      3.9797      4.0290      4.0615      4.0620      4.0302    
  3.9798      3.9385      3.9463      4.0485      4.2844      4.6766      6.9124      8.1186      9.3970      10.559    
  11.381      11.679      11.383      10.565      9.4073      8.1271      6.9121      5.8812      5.0835      4.5172    
  4.1513      3.9421      3.8422      3.8073      3.8020      3.8031      3.8021      3.8061      3.8386      3.9382    
  4.1517      4.5252      5.0966      5.8913      10.030      12.091      14.128      15.786      16.723      16.720    
  15.781      14.129      12.101      10.043      8.2079      6.7188      5.5989      4.8111      4.2936      3.9797    
  3.8073      3.7244      3.6932      3.6932      3.7239      3.8061      3.9797      4.2977      4.8194      5.6067    
  6.7195      8.1992      15.486      18.700      21.611      23.716      24.494      23.709      21.600      18.692    
  15.487      12.384      9.7294      7.6597      6.1506      5.1122      4.4380      4.0290      3.8020      3.6932    
  3.6618      3.6932      3.8020      4.0303      4.4418      5.1167      6.1509      7.6520      9.7164      12.374    
  23.803      28.262      32.071      34.351      34.351      32.069      28.254      23.792      19.246      14.966    
  11.331      8.5852      6.6504      5.3594      4.5438      4.0615      3.8031      3.6932      3.6932      3.8033    
  4.0623      4.5452      5.3599      6.6469      8.5770      11.323      14.965      19.254      34.849      40.402    
  44.599      46.201      44.611      40.414      34.852      28.889      22.972      17.442      12.780      9.3384    
  7.0017      5.4985      4.5826      4.0620      3.8021      3.7239      3.8020      4.0623      4.5828      5.4973    
  6.9981      9.3340      12.779      17.449      22.984      28.897      47.462      52.951      56.189      56.196    
  52.967      47.479      40.824      33.622      26.282      19.436      13.802      9.7638      7.1273      5.4981    
  4.5452      4.0302      3.8061      3.8061      4.0303      4.5452      5.4973      7.1257      9.7634      13.805    
  19.443      26.290      33.623      40.815      58.117      61.467      62.641      61.464      58.117      52.886    
  45.921      37.548      28.675      20.571      14.173      9.7624      6.9982      5.3598      4.4418      3.9798    
  3.8386      3.9797      4.4418      5.3599      6.9981      9.7634      14.177      20.575      28.675      37.540    
  45.910      52.878      61.533      61.481      61.471      61.510      60.457      56.748      49.609      39.875    
  29.566      20.575      13.805      9.3333      6.6463      5.1166      4.2981      3.9385      3.9382      4.2977    
  5.1167      6.6469      9.3340      13.805      20.575      29.562      39.866      49.601      56.751      60.476    
  54.314      52.306      54.296      58.581      61.236      58.887      50.993      39.872      28.679      19.445    
  12.779      8.5769      6.1509      4.8194      4.1517      3.9463      4.1517      4.8194      6.1509      8.5770    
  12.779      19.443      28.675      39.866      50.990      58.894      61.255      58.606      38.826      38.824    
  46.262      55.992      61.404      58.889      49.601      37.543      26.291      17.449      11.323      7.6528    
  5.6069      4.5245      4.0480      4.0485      4.5252      5.6067      7.6520      11.323      17.449      26.290    
  37.540      49.601      58.894      61.414      56.001      46.268      23.229      29.059      42.816      56.001    
  61.255      56.751      45.910      33.623      22.984      14.965      9.7164      6.7195      5.0966      4.2844    
  4.0333      4.2844      5.0966      6.7195      9.7164      14.965      22.984      33.623      45.910      56.751    
  61.255      56.001      42.816      29.059      16.689      29.043      46.257      58.605      60.481      52.883    
  40.816      28.897      19.255      12.373      8.1983      5.8910      4.6775      4.1422      4.1416      4.6766    
  5.8913      8.1992      12.374      19.254      28.897      40.815      52.878      60.476      58.606      46.268    
  29.059      16.696      46.052      55.749      61.536      59.564      50.547      38.349      26.794      17.753    
  11.551      7.8330      5.7564      4.6570      4.1732      4.1734      4.6575      5.7564      7.8324      11.550    
  17.754      26.796      38.350      50.542      59.556      61.532      55.753      46.061      38.826      38.822    
  55.749      61.368      61.481      54.690      43.287      31.136      21.016      13.777      9.2063      6.5684    
  5.1229      4.3977      4.1741      4.3974      5.1229      6.5687      9.2061      13.777      21.018      31.140    
  43.288      54.685      61.471      61.359      55.745      49.134      46.268      49.134      61.536      61.481    
  56.199      46.195      34.344      23.713      15.786      10.560      7.4192      5.6391      4.6896      4.2720    
  4.2716      4.6890      5.6395      7.4199      10.559      15.786      23.716      34.351      46.201      56.196    
  61.464      61.510      58.581      55.992      56.001      58.605      59.564      54.690      46.195      35.547    
  25.279      17.203      11.662      8.1874      6.1398      4.9991      4.4257      4.2502      4.4256      4.9991    