Ce                                      
   4.72000000000000     
     0.000000    0.500000    0.500000
     0.500000    0.000000    0.500000
     0.500000    0.500000    0.000000
   Ce
     1
Direct
  0.000000  0.000000  0.000000
 
   28   28   28
 -.80851101081E+01 0.10750983236E+01 0.23199389531E+02 0.46052367493E+02 0.58860641255E+02
 0.58455689665E+02 0.48919874403E+02 0.36503337704E+02 0.25243779066E+02 0.16475397759E+02
 0.10537424452E+02 0.71412720829E+01 0.53165597606E+01 0.44055944147E+01 0.41232760887E+01
 0.44055944147E+01 0.53165597606E+01 0.71412720829E+01 0.10537424452E+02 0.16475397759E+02
 0.25243779066E+02 0.36503337704E+02 0.48919874403E+02 0.58455689665E+02 0.58860641255E+02
 0.46052367493E+02 0.23199389531E+02 0.10750983236E+01 0.10750983236E+01 0.16651082171E+02
 0.38789943955E+02 0.55748697395E+02 0.60622621624E+02 0.54297517841E+02 0.42410570897E+02
 0.30232192258E+02 0.20216310106E+02 0.12952211253E+02 0.84975936603E+01 0.60459189053E+01
 0.47601951494E+01 0.41928794235E+01 0.41921483077E+01 0.47592079663E+01 0.60462408549E+01
 0.84985717229E+01 0.12952243964E+02 0.20215246558E+02 0.30230024869E+02 0.42405181711E+02
 0.54288208983E+02 0.60616793373E+02 0.55759584666E+02 0.38822017583E+02 0.16688751592E+02
 0.10920186799E+01 0.23199389531E+02 0.38789943960E+02 0.54294710396E+02 0.61536406951E+02
 0.58129682752E+02 0.47470731114E+02 0.34851029763E+02 0.23803070038E+02 0.15485499111E+02
 0.10030271795E+02 0.69121826944E+01 0.52260664025E+01 0.43838920789E+01 0.41235450619E+01
 0.43835844278E+01 0.52260769057E+01 0.69124427108E+01 0.10030238214E+02 0.15485527763E+02
 0.23803306888E+02 0.34848616869E+02 0.47461768744E+02 0.58117139741E+02 0.61533466418E+02
 0.54313921429E+02 0.38826496926E+02 0.23229268816E+02 0.16688751589E+02 0.46052367493E+02
 0.55748697414E+02 0.61536406973E+02 0.59563524128E+02 0.50547019777E+02 0.38349343842E+02
 0.26793569323E+02 0.17752643884E+02 0.11550773127E+02 0.78330375778E+01 0.57563509336E+01
 0.46570168659E+01 0.41731504557E+01 0.41734005888E+01 0.46574890073E+01 0.57563943874E+01
 0.78323726412E+01 0.11550322305E+02 0.17753832678E+02 0.26795940666E+02 0.38349593652E+02
 0.50542220617E+02 0.59555755907E+02 0.61532364899E+02 0.55752867678E+02 0.46061122019E+02
 0.38826496920E+02 0.38822017573E+02 0.58860641255E+02 0.60622621661E+02 0.58129682801E+02
 0.50547019804E+02 0.39686118593E+02 0.28556736104E+02 0.19358577295E+02 0.12796210645E+02
 0.86717815809E+01 0.62786910420E+01 0.49604371916E+01 0.42983005558E+01 0.40945119974E+01
 0.42981523023E+01 0.49604301540E+01 0.62787123510E+01 0.86712689231E+01 0.12795219322E+02
 0.19358507152E+02 0.28559218404E+02 0.39690814134E+02 0.50550861646E+02 0.58128921687E+02
 0.60616104031E+02 0.58851333720E+02 0.55752867674E+02 0.54313921407E+02 0.55759584639E+02
 0.58455689665E+02 0.54297517889E+02 0.47470731172E+02 0.38349343874E+02 0.28556736110E+02
 0.19945452461E+02 0.13502898611E+02 0.92676876835E+01 0.67041510692E+01 0.52353340536E+01
 0.44471652028E+01 0.41012929074E+01 0.41010430505E+01 0.44467826158E+01 0.52354339678E+01
 0.67045537943E+01 0.92670221406E+01 0.13499949135E+02 0.19941417201E+02 0.28555538353E+02
 0.38354377558E+02 0.47480840561E+02 0.54307129955E+02 0.58459915048E+02 0.60616104037E+02
 0.61532364882E+02 0.61533466368E+02 0.60616793326E+02 0.48919874403E+02 0.42410570937E+02
 0.34851029802E+02 0.26793569337E+02 0.19358577290E+02 0.13502898604E+02 0.94844420359E+01
 0.69457494844E+01 0.54285170994E+01 0.45738409677E+01 0.41439913651E+01 0.40132614728E+01
 0.41440919023E+01 0.45738753860E+01 0.54288248000E+01 0.69466515050E+01 0.94846258968E+01
 0.13499632149E+02 0.19351016388E+02 0.26785683534E+02 0.34849776191E+02 0.42420190915E+02
 0.48937944426E+02 0.54307129969E+02 0.58128921685E+02 0.59555755860E+02 0.58117139665E+02
 0.54288208927E+02 0.36503337704E+02 0.30232192279E+02 0.23803070050E+02 0.17752643877E+02
 0.12796210629E+02 0.92676876712E+01 0.69457494804E+01 0.54985081423E+01 0.46463270696E+01
 0.41848779817E+01 0.39848720080E+01 0.39850315074E+01 0.41849840043E+01 0.46461218389E+01
 0.54990132712E+01 0.69483959442E+01 0.92716138768E+01 0.12797125678E+02 0.17746109741E+02
 0.23790168194E+02 0.30221349497E+02 0.36504463147E+02 0.42420190926E+02 0.47480840568E+02
 0.50550861619E+02 0.50542220547E+02 0.47461768662E+02 0.42405181664E+02 0.25243779066E+02
 0.20216310110E+02 0.15485499105E+02 0.11550773113E+02 0.86717815665E+01 0.67041510619E+01
 0.54285171001E+01 0.46463270731E+01 0.42011815320E+01 0.39801677494E+01 0.39142668391E+01
 0.39800640185E+01 0.42006332161E+01 0.46453035984E+01 0.54284108573E+01 0.67075874918E+01
 0.86795866121E+01 0.11558711461E+02 0.15486143203E+02 0.20206428285E+02 0.25229333409E+02
 0.30221349501E+02 0.34849776196E+02 0.38354377546E+02 0.39690814091E+02 0.38349593587E+02
 0.34848616814E+02 0.30230024843E+02 0.16475397759E+02 0.12952211250E+02 0.10030271787E+02
 0.78330375701E+01 0.62786910400E+01 0.52353340594E+01 0.45738409785E+01 0.41848779923E+01
 0.39801677554E+01 0.38950671527E+01 0.38950052434E+01 0.39800117892E+01 0.41840661310E+01
 0.45712137985E+01 0.52315753264E+01 0.62780273495E+01 0.78399299278E+01 0.10043451934E+02
 0.12963703881E+02 0.16477160082E+02 0.20206428290E+02 0.23790168200E+02 0.26785683536E+02
 0.28555538341E+02 0.28559218379E+02 0.26795940638E+02 0.23803306870E+02 0.20215246553E+02
 0.10537424452E+02 0.84975936579E+01 0.69121826937E+01 0.57563509384E+01 0.49604372034E+01
 0.44471652195E+01 0.41439913830E+01 0.39848720232E+01 0.39142668495E+01 0.38950052486E+01
 0.39145093255E+01 0.39857036077E+01 0.41440105320E+01 0.44433560436E+01 0.49521411923E+01
 0.57484224187E+01 0.69121206608E+01 0.85083705221E+01 0.10553542867E+02 0.12963703894E+02
 0.15486143223E+02 0.17746109763E+02 0.19351016410E+02 0.19941417218E+02 0.19358507165E+02
 0.17753832689E+02 0.15485527771E+02 0.12952243968E+02 0.71412720829E+01 0.60459189069E+01
 0.52260664093E+01 0.46570168785E+01 0.42983005725E+01 0.41012929254E+01 0.40132614899E+01
 0.39850315225E+01 0.39800640315E+01 0.39800117995E+01 0.39857036139E+01 0.40157809700E+01
 0.41044552193E+01 0.42979757782E+01 0.46495105430E+01 0.52129807746E+01 0.60349292639E+01
 0.71403045650E+01 0.85083705367E+01 0.10043451964E+02 0.11558711502E+02 0.12797125726E+02
 0.13499632199E+02 0.13499949182E+02 0.12795219361E+02 0.11550322332E+02 0.10030238228E+02
 0.84985717271E+01 0.53165597606E+01 0.47601951532E+01 0.43838920868E+01 0.41731504659E+01
 0.40945120081E+01 0.41010430614E+01 0.41440919146E+01 0.41849840191E+01 0.42006332333E+01
 0.41840661484E+01 0.41440105461E+01 0.41044552271E+01 0.41020143978E+01 0.41803351744E+01
 0.43833715026E+01 0.47487726837E+01 0.52999803866E+01 0.60349292758E+01 0.69121206872E+01
 0.78399299692E+01 0.86795866657E+01 0.92716139373E+01 0.94846259567E+01 0.92670221916E+01
 0.86712689592E+01 0.78323726608E+01 0.69124427173E+01 0.60462408549E+01 0.44055944147E+01
 0.41928794257E+01 0.41235450645E+01 0.41734005905E+01 0.42981523046E+01 0.44467826220E+01
 0.45738753993E+01 0.46461218602E+01 0.46453036252E+01 0.45712138260E+01 0.44433560666E+01
 0.42979757932E+01 0.41803351809E+01 0.41358110723E+01 0.42025306930E+01 0.44051707004E+01
 0.47487726910E+01 0.52129807932E+01 0.57484224505E+01 0.62780273938E+01 0.67075875443E+01
 0.69483959980E+01 0.69466515519E+01 0.67045538277E+01 0.62787123689E+01 0.57563943925E+01
 0.52260769040E+01 0.47592079638E+01 0.41232760887E+01 0.41921483066E+01 0.43835844249E+01
 0.46574890051E+01 0.49604301572E+01 0.52354339816E+01 0.54288248263E+01 0.54990133077E+01
 0.54284108981E+01 0.52315753645E+01 0.49521412224E+01 0.46495105624E+01 0.43833715120E+01
 0.42025306955E+01 0.41386002763E+01 0.42025306955E+01 0.43833715120E+01 0.46495105624E+01
 0.49521412224E+01 0.52315753645E+01 0.54284108981E+01 0.54990133077E+01 0.54288248263E+01
 0.52354339816E+01 0.49604301572E+01 0.46574890051E+01 0.43835844249E+01 0.41921483066E+01
 0.44055944147E+01 0.47592079638E+01 0.52260769040E+01 0.57563943925E+01 0.62787123689E+01
 0.67045538277E+01 0.69466515519E+01 0.69483959980E+01 0.67075875443E+01 0.62780273938E+01
 0.57484224505E+01 0.52129807932E+01 0.47487726910E+01 0.44051707004E+01 0.42025306930E+01
 0.41358110723E+01 0.41803351809E+01 0.42979757932E+01 0.44433560666E+01 0.45712138260E+01
 0.46453036252E+01 0.46461218602E+01 0.45738753993E+01 0.44467826220E+01 0.42981523046E+01
 0.41734005905E+01 0.41235450645E+01 0.41928794257E+01 0.53165597606E+01 0.60462408549E+01
 0.69124427173E+01 0.78323726608E+01 0.86712689592E+01 0.92670221916E+01 0.94846259567E+01
 0.92716139373E+01 0.86795866657E+01 0.78399299692E+01 0.69121206872E+01 0.60349292758E+01
 0.52999803866E+01 0.47487726837E+01 0.43833715026E+01 0.41803351744E+01 0.41020143978E+01
 0.41044552271E+01 0.41440105461E+01 0.41840661484E+01 0.42006332333E+01 0.41849840191E+01
 0.41440919146E+01 0.41010430614E+01 0.40945120081E+01 0.41731504659E+01 0.43838920868E+01
 0.47601951532E+01 0.71412720829E+01 0.84985717271E+01 0.10030238228E+02 0.11550322332E+02
 0.12795219361E+02 0.13499949182E+02 0.13499632199E+02 0.12797125726E+02 0.11558711502E+02
 0.10043451964E+02 0.85083705367E+01 0.71403045650E+01 0.60349292639E+01 0.52129807746E+01
 0.46495105430E+01 0.42979757782E+01 0.41044552193E+01 0.40157809700E+01 0.39857036139E+01
 0.39800117995E+01 0.39800640315E+01 0.39850315225E+01 0.40132614899E+01 0.41012929254E+01
 0.42983005725E+01 0.46570168785E+01 0.52260664093E+01 0.60459189069E+01 0.10537424452E+02
 0.12952243968E+02 0.15485527771E+02 0.17753832689E+02 0.19358507165E+02 0.19941417218E+02
 0.19351016410E+02 0.17746109763E+02 0.15486143223E+02 0.12963703894E+02 0.10553542867E+02
 0.85083705221E+01 0.69121206608E+01 0.57484224187E+01 0.49521411923E+01 0.44433560436E+01
 0.41440105320E+01 0.39857036077E+01 0.39145093255E+01 0.38950052486E+01 0.39142668495E+01
 0.39848720232E+01 0.41439913830E+01 0.44471652195E+01 0.49604372034E+01 0.57563509384E+01
 0.69121826937E+01 0.84975936579E+01 0.16475397759E+02 0.20215246553E+02 0.23803306870E+02
 0.26795940638E+02 0.28559218379E+02 0.28555538341E+02 0.26785683536E+02 0.23790168200E+02
 0.20206428290E+02 0.16477160082E+02 0.12963703881E+02 0.10043451934E+02 0.78399299278E+01
 0.62780273495E+01 0.52315753264E+01 0.45712137985E+01 0.41840661310E+01 0.39800117892E+01
 0.38950052434E+01 0.38950671527E+01 0.39801677554E+01 0.41848779923E+01 0.45738409785E+01
 0.52353340594E+01 0.62786910400E+01 0.78330375701E+01 0.10030271787E+02 0.12952211250E+02
 0.25243779066E+02 0.30230024843E+02 0.34848616814E+02 0.38349593587E+02 0.39690814091E+02
 0.38354377546E+02 0.34849776196E+02 0.30221349501E+02 0.25229333409E+02 0.20206428285E+02
 0.15486143203E+02 0.11558711461E+02 0.86795866121E+01 0.67075874918E+01 0.54284108573E+01
 0.46453035984E+01 0.42006332161E+01 0.39800640185E+01 0.39142668391E+01 0.39801677494E+01
 0.42011815320E+01 0.46463270731E+01 0.54285171001E+01 0.67041510619E+01 0.86717815665E+01
 0.11550773113E+02 0.15485499105E+02 0.20216310110E+02 0.36503337704E+02 0.42405181664E+02
 0.47461768662E+02 0.50542220547E+02 0.50550861619E+02 0.47480840568E+02 0.42420190926E+02
 0.36504463147E+02 0.30221349497E+02 0.23790168194E+02 0.17746109741E+02 0.12797125678E+02
 0.92716138768E+01 0.69483959442E+01 0.54990132712E+01 0.46461218389E+01 0.41849840043E+01
 0.39850315074E+01 0.39848720080E+01 0.41848779817E+01 0.46463270696E+01 0.54985081423E+01
 0.69457494804E+01 0.92676876712E+01 0.12796210629E+02 0.17752643877E+02 0.23803070050E+02
 0.30232192279E+02 0.48919874403E+02 0.54288208927E+02 0.58117139665E+02 0.59555755860E+02
 0.58128921685E+02 0.54307129969E+02 0.48937944426E+02 0.42420190915E+02 0.34849776191E+02
 0.26785683534E+02 0.19351016388E+02 0.13499632149E+02 0.94846258968E+01 0.69466515050E+01
 0.54288248000E+01 0.45738753860E+01 0.41440919023E+01 0.40132614728E+01 0.41439913651E+01
 0.45738409677E+01 0.54285170994E+01 0.69457494844E+01 0.94844420359E+01 0.13502898604E+02
 0.19358577290E+02 0.26793569337E+02 0.34851029802E+02 0.42410570937E+02 0.58455689665E+02
 0.60616793326E+02 0.61533466368E+02 0.61532364882E+02 0.60616104037E+02 0.58459915048E+02
 0.54307129955E+02 0.47480840561E+02 0.38354377558E+02 0.28555538353E+02 0.19941417201E+02
 0.13499949135E+02 0.92670221406E+01 0.67045537943E+01 0.52354339678E+01 0.44467826158E+01
 0.41010430505E+01 0.41012929074E+01 0.44471652028E+01 0.52353340536E+01 0.67041510692E+01
 0.92676876835E+01 0.13502898611E+02 0.19945452461E+02 0.28556736110E+02 0.38349343874E+02
 0.47470731172E+02 0.54297517889E+02 0.58860641255E+02 0.55759584639E+02 0.54313921407E+02
 0.55752867674E+02 0.58851333720E+02 0.60616104031E+02 0.58128921687E+02 0.50550861646E+02
 0.39690814134E+02 0.28559218404E+02 0.19358507152E+02 0.12795219322E+02 0.86712689231E+01
 0.62787123510E+01 0.49604301540E+01 0.42981523023E+01 0.40945119974E+01 0.42983005558E+01
 0.49604371916E+01 0.62786910420E+01 0.86717815809E+01 0.12796210645E+02 0.19358577295E+02
 0.28556736104E+02 0.39686118593E+02 0.50547019804E+02 0.58129682801E+02 0.60622621661E+02
 0.46052367493E+02 0.38822017573E+02 0.38826496920E+02 0.46061122019E+02 0.55752867678E+02
 0.61532364899E+02 0.59555755907E+02 0.50542220617E+02 0.38349593652E+02 0.26795940666E+02
 0.17753832678E+02 0.11550322305E+02 0.78323726412E+01 0.57563943874E+01 0.46574890073E+01
 0.41734005888E+01 0.41731504557E+01 0.46570168659E+01 0.57563509336E+01 0.78330375778E+01
 0.11550773127E+02 0.17752643884E+02 0.26793569323E+02 0.38349343842E+02 0.50547019777E+02
 0.59563524128E+02 0.61536406973E+02 0.55748697414E+02 0.23199389531E+02 0.16688751589E+02
 0.23229268816E+02 0.38826496926E+02 0.54313921429E+02 0.61533466418E+02 0.58117139741E+02
 0.47461768744E+02 0.34848616869E+02 0.23803306888E+02 0.15485527763E+02 0.10030238214E+02
 0.69124427108E+01 0.52260769057E+01 0.43835844278E+01 0.41235450619E+01 0.43838920789E+01
 0.52260664025E+01 0.69121826944E+01 0.10030271795E+02 0.15485499111E+02 0.23803070038E+02
 0.34851029763E+02 0.47470731114E+02 0.58129682752E+02 0.61536406951E+02 0.54294710396E+02
 0.38789943960E+02 0.10750983236E+01 0.10920186799E+01 0.16688751592E+02 0.38822017583E+02
 0.55759584666E+02 0.60616793373E+02 0.54288208983E+02 0.42405181711E+02 0.30230024869E+02
 0.20215246558E+02 0.12952243964E+02 0.84985717229E+01 0.60462408549E+01 0.47592079663E+01
 0.41921483077E+01 0.41928794235E+01 0.47601951494E+01 0.60459189053E+01 0.84975936603E+01
 0.12952211253E+02 0.20216310106E+02 0.30232192258E+02 0.42410570897E+02 0.54297517841E+02
 0.60622621624E+02 0.55748697395E+02 0.38789943955E+02 0.16651082171E+02 0.10750983236E+01
 0.16651082171E+02 0.38789943960E+02 0.55748697414E+02 0.60622621661E+02 0.54297517889E+02
 0.42410570937E+02 0.30232192279E+02 0.20216310110E+02 0.12952211250E+02 0.84975936579E+01
 0.60459189069E+01 0.47601951532E+01 0.41928794257E+01 0.41921483066E+01 0.47592079638E+01
 0.60462408549E+01 0.84985717271E+01 0.12952243968E+02 0.20215246553E+02 0.30230024843E+02
 0.42405181664E+02 0.54288208927E+02 0.60616793326E+02 0.55759584639E+02 0.38822017573E+02
 0.16688751589E+02 0.10920186799E+01 0.16651082171E+02 0.34353133907E+02 0.52279619793E+02
 0.61368121059E+02 0.58890687178E+02 0.48434759429E+02 0.35673244229E+02 0.24402626314E+02
 0.15871669235E+02 0.10239812897E+02 0.70209838978E+01 0.52838655040E+01 0.44167838247E+01
 0.41485641743E+01 0.44164007001E+01 0.52838766259E+01 0.70212890046E+01 0.10239725563E+02
 0.15871559098E+02 0.24402342938E+02 0.35668741100E+02 0.48421378824E+02 0.58873948765E+02
 0.61367328200E+02 0.52311782740E+02 0.34409685553E+02 0.16696278258E+02 0.93037347975E+01
 0.38789943955E+02 0.52279619793E+02 0.61478668779E+02 0.61481274406E+02 0.52964608189E+02
 0.40406488272E+02 0.28260287833E+02 0.18698543887E+02 0.12091656641E+02 0.81191536731E+01
 0.59092526850E+01 0.47425542968E+01 0.42288657769E+01 0.42290780421E+01 0.47430270899E+01
 0.59094048044E+01 0.81185904869E+01 0.12091400961E+02 0.18700025440E+02 0.28261577956E+02
 0.40401625435E+02 0.52950839831E+02 0.61467435478E+02 0.61481270049E+02 0.52305595754E+02
 0.38824306000E+02 0.29059057408E+02 0.29043129321E+02 0.55748697395E+02 0.61368121059E+02
 0.61481274414E+02 0.54690302640E+02 0.43286788306E+02 0.31136108439E+02 0.21015985038E+02
 0.13777000860E+02 0.92063465085E+01 0.65683803235E+01 0.51228566711E+01 0.43977178224E+01
 0.41740885705E+01 0.43974441359E+01 0.51229295512E+01 0.65686647198E+01 0.92061130192E+01
 0.13776814247E+02 0.21017669860E+02 0.31139552172E+02 0.43288120355E+02 0.54685484679E+02
 0.61471420866E+02 0.61359156591E+02 0.55744973920E+02 0.49134083857E+02 0.46268116638E+02
 0.49134041013E+02 0.60622621624E+02 0.58890687178E+02 0.52964608205E+02 0.43286788315E+02
 0.32222270767E+02 0.22352697105E+02 0.14968301042E+02 0.10097922006E+02 0.71646026962E+01
 0.54957155418E+01 0.46035975065E+01 0.42115312537E+01 0.42111211048E+01 0.46030594141E+01
 0.54959429273E+01 0.71650112590E+01 0.10097133734E+02 0.14966662514E+02 0.22353018233E+02
 0.32226904604E+02 0.43293879512E+02 0.52968148848E+02 0.58885321413E+02 0.60609005938E+02
 0.59756349228E+02 0.58599834159E+02 0.58606015137E+02 0.59770815451E+02 0.54297517841E+02
 0.48434759429E+02 0.40406488288E+02 0.31136108446E+02 0.22352697103E+02 0.15399568027E+02
 0.10603868230E+02 0.75866694982E+01 0.57971356221E+01 0.47947612592E+01 0.42905778069E+01
 0.41366758442E+01 0.42906119509E+01 0.47947798929E+01 0.57973101579E+01 0.75868394508E+01
 0.10602805197E+02 0.15396167275E+02 0.22348588896E+02 0.31135691058E+02 0.40412557668E+02
 0.48444400497E+02 0.54304226984E+02 0.58166592439E+02 0.60473233625E+02 0.61274162486E+02
 0.60475501923E+02 0.58166036412E+02 0.42410570897E+02 0.35673244229E+02 0.28260287840E+02
 0.21015985035E+02 0.14968301033E+02 0.10603868224E+02 0.77395707463E+01 0.59668586650E+01
 0.49295991408E+01 0.43683399273E+01 0.41238717551E+01 0.41240929773E+01 0.43685990474E+01
 0.49296414712E+01 0.59675036344E+01 0.77412106765E+01 0.10604395896E+02 0.14964406669E+02
 0.21007518942E+02 0.28252379209E+02 0.35672689474E+02 0.42419845242E+02 0.48232316308E+02
 0.52891491166E+02 0.55638975714E+02 0.55633791472E+02 0.52878248192E+02 0.48217293972E+02
 0.30232192258E+02 0.24402626314E+02 0.18698543885E+02 0.13777000850E+02 0.10097921993E+02
 0.75866694905E+01 0.59668586634E+01 0.49781110871E+01 0.44149377727E+01 0.41331393912E+01
 0.40484331574E+01 0.41331552668E+01 0.44146803617E+01 0.49779242533E+01 0.59681704401E+01
 0.75906119831E+01 0.10102872514E+02 0.13778175647E+02 0.18691826294E+02 0.24389890788E+02
 0.30221820604E+02 0.35793796334E+02 0.40824487337E+02 0.44595423379E+02 0.46029659874E+02
 0.44585648599E+02 0.40814704768E+02 0.35793776142E+02 0.20216310106E+02 0.15871669235E+02
 0.12091656636E+02 0.92063464992E+01 0.71646026886E+01 0.57971356204E+01 0.49295991443E+01
 0.44149377766E+01 0.41390370147E+01 0.40219483418E+01 0.40218857398E+01 0.41387059624E+01
 0.44139463366E+01 0.49280731565E+01 0.57970631503E+01 0.71691363889E+01 0.92158567752E+01
 0.12100757803E+02 0.15872608818E+02 0.20206739059E+02 0.24656734707E+02 0.28887294506E+02
 0.32445154096E+02 0.34566022057E+02 0.34566038490E+02 0.32448053398E+02 0.28896960210E+02
 0.24670634530E+02 0.12952211253E+02 0.10239812897E+02 0.81191536703E+01 0.65683803218E+01
 0.54957155450E+01 0.47947612678E+01 0.43683399384E+01 0.41331394007E+01 0.40219483468E+01
 0.39900583057E+01 0.40219304679E+01 0.41330610001E+01 0.43670218216E+01 0.47908609399E+01
 0.54908777472E+01 0.65678556215E+01 0.81270889079E+01 0.10253747713E+02 0.12963722232E+02
 0.16085098083E+02 0.19245528289E+02 0.22064068931E+02 0.24089762698E+02 0.24842268810E+02
 0.24098312204E+02 0.22076467334E+02 0.19254040374E+02 0.16083434026E+02 0.84975936603E+01
 0.70209838978E+01 0.59092526869E+01 0.51228566779E+01 0.46035975186E+01 0.42905778220E+01
 0.41238717702E+01 0.40484331698E+01 0.40218857483E+01 0.40219304724E+01 0.40491318870E+01
 0.41253581930E+01 0.42904768373E+01 0.45985344490E+01 0.51130093791E+01 0.59005142931E+01
 0.70209234344E+01 0.85083219948E+01 0.10337626315E+02 0.12383734867E+02 0.14392401815E+02
 0.16018852032E+02 0.16940491545E+02 0.16943744324E+02 0.16024486409E+02 0.14392165113E+02
 0.12373617999E+02 0.10322359733E+02 0.60459189053E+01 0.52838655040E+01 0.47425543014E+01
 0.43977178320E+01 0.42115312665E+01 0.41366758579E+01 0.41240929906E+01 0.41331552791E+01
 0.41387059737E+01 0.41330610095E+01 0.41253581987E+01 0.41402722232E+01 0.42155398191E+01
 0.43973450248E+01 0.47341875612E+01 0.52699954070E+01 0.60348834437E+01 0.70302448355E+01
 0.82079628333E+01 0.94521047599E+01 0.10579921124E+02 0.11377317127E+02 0.11666181582E+02
 0.11375168026E+02 0.10573044948E+02 0.94410361219E+01 0.81992080135E+01 0.70311319536E+01
 0.47601951494E+01 0.44167838247E+01 0.42288657805E+01 0.41740885762E+01 0.42111211114E+01
 0.42906119587E+01 0.43685990578E+01 0.44146803754E+01 0.44139463529E+01 0.43670218378E+01
 0.42904768499E+01 0.42155398256E+01 0.41831894137E+01 0.42370073384E+01 0.44161684813E+01
 0.47487141914E+01 0.52436069763E+01 0.58812325694E+01 0.66048238077E+01 0.73183720758E+01
 0.78985839887E+01 0.82252569122E+01 0.82228555642E+01 0.78924511257E+01 0.73124184414E+01
 0.66051469925E+01 0.58912718923E+01 0.52592152636E+01 0.41928794235E+01 0.41485641743E+01
 0.42290780425E+01 0.43974441362E+01 0.46030594160E+01 0.47947798999E+01 0.49296414855E+01
 0.49779242749E+01 0.49280731820E+01 0.47908609644E+01 0.45985344681E+01 0.43973450361E+01
 0.42370073425E+01 0.41615159131E+01 0.42024550226E+01 0.43737168401E+01 0.46673531070E+01
 0.50514117196E+01 0.54707561417E+01 0.58528074047E+01 0.61212040800E+01 0.62170739256E+01
 0.61196062157E+01 0.58533624177E+01 0.54770926072E+01 0.50624625615E+01 0.46765977821E+01
 0.43740690486E+01 0.41921483077E+01 0.44164007001E+01 0.47430270886E+01 0.51229295516E+01
 0.54959429341E+01 0.57973101750E+01 0.59675036624E+01 0.59681704752E+01 0.57970631865E+01
 0.54908777783E+01 0.51130094011E+01 0.47341875731E+01 0.44161684852E+01 0.42024550222E+01
 0.41144303133E+01 0.41508827196E+01 0.42902199704E+01 0.44945526479E+01 0.47150378199E+01
 0.48996263492E+01 0.50042842728E+01 0.50047007548E+01 0.49022231487E+01 0.47210840046E+01
 0.45009607145E+01 0.42904907928E+01 0.41415564370E+01 0.40999071978E+01 0.47592079663E+01
 0.52838766259E+01 0.59094048057E+01 0.65686647285E+01 0.71650112801E+01 0.75868394853E+01
 0.77412107206E+01 0.75906120298E+01 0.71691364306E+01 0.65678556528E+01 0.59005143117E+01
 0.52699954138E+01 0.47487141897E+01 0.43737168343E+01 0.41508827145E+01 0.40627649147E+01
 0.40766370016E+01 0.41513775179E+01 0.42439396534E+01 0.43166368717E+01 0.43442521018E+01
 0.43181062459E+01 0.42461565356E+01 0.41515555220E+01 0.40713395644E+01 0.40525261725E+01
 0.41421897929E+01 0.43740690539E+01 0.60462408549E+01 0.70212890046E+01 0.81185904935E+01
 0.92061130383E+01 0.10097133767E+02 0.10602805242E+02 0.10604395945E+02 0.10102872559E+02
 0.92158568109E+01 0.81270889299E+01 0.70209234423E+01 0.60348834396E+01 0.52436069640E+01
 0.46673530915E+01 0.42902199565E+01 0.40766369934E+01 0.39823326446E+01 0.39615964043E+01
 0.39735747548E+01 0.39879056032E+01 0.39882579384E+01 0.39736646025E+01 0.39593113507E+01
 0.39768491595E+01 0.40710470815E+01 0.42906787865E+01 0.46774601182E+01 0.52592152680E+01
 0.84985717229E+01 0.10239725563E+02 0.12091400970E+02 0.13776814266E+02 0.14966662543E+02
 0.15396167308E+02 0.14964406702E+02 0.13778175674E+02 0.12100757821E+02 0.10253747718E+02
 0.85083219869E+01 0.70302448164E+01 0.58812325431E+01 0.50514116914E+01 0.44945526232E+01
 0.41513775004E+01 0.39615963958E+01 0.38707423848E+01 0.38353558648E+01 0.38269875597E+01
 0.38351295670E+01 0.38693427656E+01 0.39594345746E+01 0.41515536377E+01 0.45005003072E+01
 0.50624360167E+01 0.58909782925E+01 0.70311319510E+01 0.12952243964E+02 0.15871559098E+02
 0.18700025443E+02 0.21017669863E+02 0.22353018239E+02 0.22348588903E+02 0.21007518948E+02
 0.18691826295E+02 0.15872608812E+02 0.12963722218E+02 0.10337626290E+02 0.82079627983E+01
 0.66048237663E+01 0.54707561005E+01 0.47150377850E+01 0.42439396282E+01 0.39735747397E+01
 0.38353558581E+01 0.37796485351E+01 0.37796229119E+01 0.38350755653E+01 0.39735774240E+01
 0.42463822265E+01 0.47211205044E+01 0.54771767742E+01 0.66049641377E+01 0.81982642975E+01
 0.10322359725E+02 0.20215246558E+02 0.24402342938E+02 0.28261577943E+02 0.31139552152E+02
 0.32226904589E+02 0.31135691052E+02 0.28252379204E+02 0.24389890776E+02 0.20206739040E+02
 0.16085098058E+02 0.12383734831E+02 0.94521047112E+01 0.73183720207E+01 0.58528073527E+01
 0.48996263077E+01 0.43166368430E+01 0.39879055848E+01 0.38269875482E+01 0.37796229058E+01
 0.38271175578E+01 0.39883865990E+01 0.43181879696E+01 0.49021322850E+01 0.58534355653E+01
 0.73131407850E+01 0.94410580436E+01 0.12373404146E+02 0.16083434024E+02 0.30230024869E+02
 0.35668741100E+02 0.40401625408E+02 0.43288120326E+02 0.43293879502E+02 0.40412557671E+02
 0.35672689472E+02 0.30221820590E+02 0.24656734685E+02 0.19245528262E+02 0.14392401774E+02
 0.10579921066E+02 0.78985839241E+01 0.61212040229E+01 0.50042842312E+01 0.43442520749E+01
 0.39882579199E+01 0.38351295519E+01 0.38350755532E+01 0.39883865926E+01 0.43448610030E+01
 0.50045264326E+01 0.61189940763E+01 0.78928696531E+01 0.10573661715E+02 0.14391905880E+02
 0.19254523720E+02 0.24670634555E+02 0.42405181711E+02 0.48421378824E+02 0.52950839802E+02
 0.54685484661E+02 0.52968148857E+02 0.48444400513E+02 0.42419845241E+02 0.35793796318E+02
 0.28887294490E+02 0.22064068911E+02 0.16018851992E+02 0.11377317065E+02 0.82252568449E+01
 0.62170738713E+01 0.50047007201E+01 0.43181062251E+01 0.39736645857E+01 0.38693427475E+01
 0.39735774072E+01 0.43181879596E+01 0.50045264307E+01 0.62156045333E+01 0.82227174047E+01
 0.11376666175E+02 0.16023922501E+02 0.22074916799E+02 0.28897465075E+02 0.35793776210E+02
 0.54288208983E+02 0.58873948765E+02 0.61467435460E+02 0.61471420868E+02 0.58885321434E+02
 0.54304226995E+02 0.48232316301E+02 0.40824487328E+02 0.32445154098E+02 0.24089762693E+02
 0.16940491511E+02 0.11666181521E+02 0.82228555022E+01 0.61196061721E+01 0.49022231259E+01
 0.42461565225E+01 0.39593113354E+01 0.39594345545E+01 0.42463822086E+01 0.49021322776E+01
 0.61189940799E+01 0.82227174111E+01 0.11668573691E+02 0.16946173791E+02 0.24095778064E+02
 0.32445928131E+02 0.40816425149E+02 0.48217294072E+02 0.60616793373E+02 0.61367328200E+02
 0.61481270043E+02 0.61359156600E+02 0.60609005951E+02 0.58166592442E+02 0.52891491170E+02
 0.44595423403E+02 0.34566022091E+02 0.24842268822E+02 0.16943744295E+02 0.11375167972E+02
 0.78924510766E+01 0.58533623901E+01 0.47210839945E+01 0.41515555149E+01 0.39768491448E+01
 0.41515536176E+01 0.47211204903E+01 0.58534355662E+01 0.78928696668E+01 0.11376666189E+02
 0.16946173796E+02 0.24843078359E+02 0.34561718034E+02 0.44586083926E+02 0.52883007829E+02
 0.58166036511E+02 0.55759584666E+02 0.52311782740E+02 0.52305595754E+02 0.55744973927E+02
 0.59756349239E+02 0.60473233647E+02 0.55638975766E+02 0.46029659951E+02 0.34566038558E+02
 0.24098312226E+02 0.16024486385E+02 0.10573044906E+02 0.73124184100E+01 0.54770925960E+01
 0.45009607139E+01 0.40713395597E+01 0.40710470669E+01 0.45005002903E+01 0.54771767679E+01
 0.73131407954E+01 0.10573661735E+02 0.16023922513E+02 0.24095778055E+02 0.34561718013E+02
 0.46025594358E+02 0.55639080585E+02 0.60480949769E+02 0.59770815518E+02 0.38822017583E+02
 0.34409685553E+02 0.38824306002E+02 0.49134083867E+02 0.58599834190E+02 0.61274162557E+02
 0.55633791584E+02 0.44585648717E+02 0.32448053476E+02 0.22076467354E+02 0.14392165093E+02
 0.94410360946E+01 0.66051469787E+01 0.50624625622E+01 0.42904907960E+01 0.40525261674E+01
 0.42906787731E+01 0.50624360058E+01 0.66049641399E+01 0.94410580584E+01 0.14391905893E+02
 0.22074916788E+02 0.32445928082E+02 0.44586083856E+02 0.55639080537E+02 0.61282079652E+02
 0.58605070032E+02 0.49134041043E+02 0.16688751592E+02 0.16696278258E+02 0.29059057413E+02
 0.46268116661E+02 0.58606015199E+02 0.60475502032E+02 0.52878248326E+02 0.40814704880E+02
 0.28896960268E+02 0.19254040381E+02 0.12373617984E+02 0.81992080006E+01 0.58912718912E+01
 0.46765977879E+01 0.41415564395E+01 0.41421897868E+01 0.46774601084E+01 0.58909782891E+01
 0.81982643052E+01 0.12373404157E+02 0.19254523714E+02 0.28897465027E+02 0.40816425055E+02
 0.52883007720E+02 0.60480949689E+02 0.58605069999E+02 0.46256590403E+02 0.29043129328E+02
 0.10920186799E+01 0.93037347975E+01 0.29043129328E+02 0.49134041043E+02 0.59770815518E+02
 0.58166036511E+02 0.48217294072E+02 0.35793776210E+02 0.24670634555E+02 0.16083434024E+02
 0.10322359725E+02 0.70311319510E+01 0.52592152680E+01 0.43740690539E+01 0.40999071978E+01
 0.43740690486E+01 0.52592152636E+01 0.70311319536E+01 0.10322359733E+02 0.16083434026E+02
 0.24670634530E+02 0.35793776142E+02 0.48217293972E+02 0.58166036412E+02 0.59770815451E+02
 0.49134041013E+02 0.29043129321E+02 0.93037347975E+01 0.23199389531E+02 0.38789943955E+02
 0.54294710396E+02 0.61536406973E+02 0.58129682801E+02 0.47470731172E+02 0.34851029802E+02
 0.23803070050E+02 0.15485499105E+02 0.10030271787E+02 0.69121826937E+01 0.52260664093E+01
 0.43838920868E+01 0.41235450645E+01 0.43835844249E+01 0.52260769040E+01 0.69124427173E+01
 0.10030238228E+02 0.15485527771E+02 0.23803306870E+02 0.34848616814E+02 0.47461768662E+02
 0.58117139665E+02 0.61533466368E+02 0.54313921407E+02 0.38826496920E+02 0.23229268816E+02
 0.16688751592E+02 0.38789943960E+02 0.52279619793E+02 0.61478668779E+02 0.61481274414E+02
 0.52964608205E+02 0.40406488288E+02 0.28260287840E+02 0.18698543885E+02 0.12091656636E+02
 0.81191536703E+01 0.59092526869E+01 0.47425543014E+01 0.42288657805E+01 0.42290780425E+01
 0.47430270886E+01 0.59094048057E+01 0.81185904935E+01 0.12091400970E+02 0.18700025443E+02
 0.28261577943E+02 0.40401625408E+02 0.52950839802E+02 0.61467435460E+02 0.61481270043E+02
 0.52305595754E+02 0.38824306002E+02 0.29059057413E+02 0.29043129328E+02 0.54294710396E+02
 0.61478668779E+02 0.62654224704E+02 0.56199145439E+02 0.44600545026E+02 0.32067813244E+02