   1   1   0   0
  0.2628851E+02  0.3337544E-09  0.3337544E-09  0.3337544E-09  0.5000000E-15
  1.000000000000000E-004
  CAR 
 Ce                                      
     12.76126681    -27.25965299  301      9.53658405      1.00000000
    -27.260  0.0000E+00  0.0000E+00
    -27.126  0.0000E+00  0.0000E+00
    -26.993  0.9211E-33  0.1229E-33
    -26.859  0.1137E-27  0.1517E-28
    -26.726  0.2745E-23  0.3662E-24
    -26.593  0.2705E-19  0.3609E-20
    -26.459  0.1084E-15  0.1447E-16
    -26.326  0.1761E-12  0.2350E-13
    -26.192  0.1144E-09  0.1529E-10
    -26.059  0.2939E-07  0.3936E-08
    -25.926  0.2913E-05  0.3925E-06
    -25.792  0.1059E-03  0.1451E-04
    -25.659  0.1222E-02  0.1775E-03
    -25.525  0.1697E-02  0.4039E-03
    -25.392 -0.1554E-01 -0.1669E-02
    -25.259  0.3272E-01  0.2695E-02
    -25.125  0.3621E+00  0.5100E-01
    -24.992  0.8323E+00  0.1620E+00
    -24.858  0.1414E+01  0.3506E+00
    -24.725  0.3230E+01  0.7815E+00
    -24.592  0.5568E+01  0.1524E+01
    -24.458  0.3571E+01  0.2001E+01
    -24.325  0.1594E+00  0.2022E+01
    -24.191 -0.1968E+00  0.1996E+01
    -24.058  0.2175E-01  0.1999E+01
    -23.925  0.9603E-02  0.2000E+01
    -23.791  0.5941E-03  0.2000E+01
    -23.658  0.1158E-04  0.2000E+01
    -23.524  0.8155E-07  0.2000E+01
    -23.391  0.2188E-09  0.2000E+01
    -23.258  0.2291E-12  0.2000E+01
    -23.124  0.2456E-16  0.2000E+01
    -22.991  0.0000E+00  0.2000E+01
    -22.857  0.0000E+00  0.2000E+01
    -22.724  0.0000E+00  0.2000E+01
    -22.591  0.0000E+00  0.2000E+01
    -22.457  0.0000E+00  0.2000E+01
    -22.324  0.0000E+00  0.2000E+01
    -22.190  0.0000E+00  0.2000E+01
    -22.057  0.0000E+00  0.2000E+01
    -21.924  0.0000E+00  0.2000E+01
    -21.790  0.0000E+00  0.2000E+01
    -21.657  0.0000E+00  0.2000E+01
    -21.523  0.0000E+00  0.2000E+01
    -21.390  0.0000E+00  0.2000E+01
    -21.257  0.0000E+00  0.2000E+01
    -21.123  0.0000E+00  0.2000E+01
    -20.990  0.0000E+00  0.2000E+01
    -20.856  0.0000E+00  0.2000E+01
    -20.723  0.0000E+00  0.2000E+01
    -20.589  0.0000E+00  0.2000E+01
    -20.456  0.0000E+00  0.2000E+01
    -20.323  0.0000E+00  0.2000E+01
    -20.189  0.0000E+00  0.2000E+01
    -20.056  0.0000E+00  0.2000E+01
    -19.922  0.0000E+00  0.2000E+01
    -19.789  0.0000E+00  0.2000E+01
    -19.656  0.0000E+00  0.2000E+01
    -19.522  0.0000E+00  0.2000E+01
    -19.389  0.0000E+00  0.2000E+01
    -19.255  0.0000E+00  0.2000E+01
    -19.122  0.0000E+00  0.2000E+01
    -18.989  0.0000E+00  0.2000E+01
    -18.855  0.0000E+00  0.2000E+01
    -18.722  0.0000E+00  0.2000E+01
    -18.588  0.0000E+00  0.2000E+01
    -18.455  0.0000E+00  0.2000E+01
    -18.322  0.0000E+00  0.2000E+01
    -18.188  0.0000E+00  0.2000E+01
    -18.055  0.0000E+00  0.2000E+01
    -17.921  0.0000E+00  0.2000E+01
    -17.788  0.0000E+00  0.2000E+01
    -17.655  0.0000E+00  0.2000E+01
    -17.521  0.0000E+00  0.2000E+01
    -17.388  0.0000E+00  0.2000E+01
    -17.254  0.0000E+00  0.2000E+01
    -17.121  0.0000E+00  0.2000E+01
    -16.988  0.0000E+00  0.2000E+01
    -16.854  0.0000E+00  0.2000E+01
    -16.721  0.0000E+00  0.2000E+01
    -16.587  0.0000E+00  0.2000E+01
    -16.454  0.0000E+00  0.2000E+01
    -16.321  0.0000E+00  0.2000E+01
    -16.187  0.0000E+00  0.2000E+01
    -16.054  0.0000E+00  0.2000E+01
    -15.920  0.0000E+00  0.2000E+01
    -15.787  0.0000E+00  0.2000E+01
    -15.654  0.0000E+00  0.2000E+01
    -15.520  0.0000E+00  0.2000E+01
    -15.387  0.0000E+00  0.2000E+01
    -15.253  0.0000E+00  0.2000E+01
    -15.120  0.0000E+00  0.2000E+01
    -14.987  0.0000E+00  0.2000E+01
    -14.853  0.0000E+00  0.2000E+01
    -14.720  0.0000E+00  0.2000E+01
    -14.586  0.0000E+00  0.2000E+01
    -14.453  0.0000E+00  0.2000E+01
    -14.320  0.0000E+00  0.2000E+01
    -14.186  0.0000E+00  0.2000E+01
    -14.053  0.0000E+00  0.2000E+01
    -13.919  0.0000E+00  0.2000E+01
    -13.786  0.0000E+00  0.2000E+01
    -13.653  0.0000E+00  0.2000E+01
    -13.519  0.0000E+00  0.2000E+01
    -13.386  0.0000E+00  0.2000E+01
    -13.252  0.0000E+00  0.2000E+01
    -13.119  0.0000E+00  0.2000E+01
    -12.986  0.0000E+00  0.2000E+01
    -12.852  0.0000E+00  0.2000E+01
    -12.719  0.0000E+00  0.2000E+01
    -12.585  0.0000E+00  0.2000E+01
    -12.452  0.0000E+00  0.2000E+01
    -12.319  0.0000E+00  0.2000E+01
    -12.185  0.0000E+00  0.2000E+01
    -12.052  0.0000E+00  0.2000E+01
    -11.918  0.0000E+00  0.2000E+01
    -11.785  0.0000E+00  0.2000E+01
    -11.651  0.7145E-31  0.2000E+01
    -11.518  0.4684E-26  0.2000E+01
    -11.385  0.9440E-22  0.2000E+01
    -11.251  0.7783E-18  0.2000E+01
    -11.118  0.2623E-14  0.2000E+01
    -10.984  0.3601E-11  0.2000E+01
    -10.851  0.2001E-08  0.2000E+01
    -10.718  0.4461E-06  0.2000E+01
    -10.584  0.3910E-04  0.2000E+01
    -10.451  0.1281E-02  0.2000E+01
    -10.317  0.1316E-01  0.2002E+01
    -10.184  0.2294E-02  0.2002E+01
    -10.051 -0.2327E+00  0.1971E+01
     -9.917  0.6129E+00  0.2053E+01
     -9.784  0.4169E+01  0.2609E+01
     -9.650  0.4555E+01  0.3217E+01
     -9.517  0.1821E+01  0.3460E+01
     -9.384  0.9533E+00  0.3587E+01
     -9.250  0.7752E+00  0.3690E+01
     -9.117  0.6481E+00  0.3777E+01
     -8.983  0.4688E+00  0.3839E+01
     -8.850  0.4112E+00  0.3894E+01
     -8.717  0.3179E+00  0.3937E+01
     -8.583  0.2445E+00  0.3969E+01
     -8.450  0.1723E+00  0.3992E+01
     -8.316  0.6007E-01  0.4000E+01
     -8.183  0.3495E-02  0.4001E+01
     -8.050  0.1187E-01  0.4002E+01
     -7.916 -0.6730E-01  0.3993E+01
     -7.783 -0.7394E-01  0.3983E+01
     -7.649  0.1537E+01  0.4189E+01
     -7.516  0.3253E+01  0.4623E+01
     -7.383  0.2628E+01  0.4973E+01
     -7.249  0.1937E+01  0.5232E+01
     -7.116  0.1574E+01  0.5442E+01
     -6.982  0.1179E+01  0.5599E+01
     -6.849  0.1198E+01  0.5759E+01
     -6.716  0.2238E+01  0.6057E+01
     -6.582  0.2539E+01  0.6396E+01
     -6.449  0.2257E+01  0.6697E+01
     -6.315  0.2081E+01  0.6975E+01
     -6.182  0.1805E+01  0.7215E+01
     -6.049  0.1783E+01  0.7453E+01
     -5.915  0.1688E+01  0.7678E+01
     -5.782  0.1232E+01  0.7843E+01
     -5.648  0.7703E+00  0.7946E+01
     -5.515  0.3715E+00  0.7995E+01
     -5.382  0.4979E-01  0.8002E+01
     -5.248 -0.1492E-01  0.8000E+01
     -5.115  0.2955E-03  0.8000E+01
     -4.981  0.1290E-02  0.8000E+01
     -4.848  0.1507E-03  0.8000E+01
     -4.715  0.5377E-05  0.8000E+01
     -4.581  0.6935E-07  0.8000E+01
     -4.448  0.3411E-09  0.8000E+01
     -4.314  0.6555E-12  0.8000E+01
     -4.181  0.4941E-15  0.8000E+01
     -4.048  0.0000E+00  0.8000E+01
     -3.914  0.0000E+00  0.8000E+01
     -3.781  0.0000E+00  0.8000E+01
     -3.647  0.0000E+00  0.8000E+01
     -3.514  0.0000E+00  0.8000E+01
     -3.381  0.0000E+00  0.8000E+01
     -3.247  0.0000E+00  0.8000E+01
     -3.114  0.0000E+00  0.8000E+01
     -2.980  0.0000E+00  0.8000E+01
     -2.847  0.0000E+00  0.8000E+01
     -2.713  0.0000E+00  0.8000E+01
     -2.580  0.0000E+00  0.8000E+01
     -2.447  0.0000E+00  0.8000E+01
     -2.313  0.0000E+00  0.8000E+01
     -2.180  0.0000E+00  0.8000E+01
     -2.046  0.0000E+00  0.8000E+01
     -1.913  0.0000E+00  0.8000E+01
     -1.780  0.0000E+00  0.8000E+01
     -1.646  0.0000E+00  0.8000E+01
     -1.513  0.0000E+00  0.8000E+01
     -1.379  0.0000E+00  0.8000E+01
     -1.246  0.0000E+00  0.8000E+01
     -1.113  0.0000E+00  0.8000E+01
     -0.979  0.0000E+00  0.8000E+01
     -0.846  0.0000E+00  0.8000E+01
     -0.712  0.0000E+00  0.8000E+01
     -0.579  0.0000E+00  0.8000E+01
     -0.446  0.0000E+00  0.8000E+01
     -0.312  0.0000E+00  0.8000E+01
     -0.179  0.0000E+00  0.8000E+01
     -0.045  0.0000E+00  0.8000E+01
      0.088  0.0000E+00  0.8000E+01
      0.221  0.0000E+00  0.8000E+01
      0.355  0.0000E+00  0.8000E+01
      0.488  0.0000E+00  0.8000E+01
      0.622  0.0000E+00  0.8000E+01
      0.755  0.0000E+00  0.8000E+01
      0.888  0.0000E+00  0.8000E+01
      1.022  0.0000E+00  0.8000E+01
      1.155  0.0000E+00  0.8000E+01
      1.289  0.0000E+00  0.8000E+01
      1.422  0.0000E+00  0.8000E+01
      1.555  0.0000E+00  0.8000E+01
      1.689  0.0000E+00  0.8000E+01
      1.822  0.0000E+00  0.8000E+01
      1.956  0.0000E+00  0.8000E+01
      2.089  0.0000E+00  0.8000E+01
      2.222  0.0000E+00  0.8000E+01
      2.356  0.0000E+00  0.8000E+01
      2.489  0.0000E+00  0.8000E+01
      2.623  0.0000E+00  0.8000E+01
      2.756  0.0000E+00  0.8000E+01
      2.889  0.0000E+00  0.8000E+01
      3.023  0.0000E+00  0.8000E+01
      3.156  0.0000E+00  0.8000E+01
      3.290  0.0000E+00  0.8000E+01
      3.423  0.0000E+00  0.8000E+01
      3.556  0.0000E+00  0.8000E+01
      3.690  0.0000E+00  0.8000E+01
      3.823  0.0000E+00  0.8000E+01
      3.957  0.0000E+00  0.8000E+01
      4.090  0.0000E+00  0.8000E+01
      4.223  0.0000E+00  0.8000E+01
      4.357  0.0000E+00  0.8000E+01
      4.490  0.0000E+00  0.8000E+01
      4.624  0.0000E+00  0.8000E+01
      4.757  0.0000E+00  0.8000E+01
      4.890  0.3944E-31  0.8000E+01
      5.024  0.1800E-26  0.8000E+01
      5.157  0.3258E-22  0.8000E+01
      5.291  0.2355E-18  0.8000E+01
      5.424  0.6761E-15  0.8000E+01
      5.558  0.7605E-12  0.8000E+01
      5.691  0.3302E-09  0.8000E+01
      5.824  0.5376E-07  0.8000E+01
      5.958  0.3108E-05  0.8000E+01
      6.091  0.5606E-04  0.8000E+01
      6.225  0.1943E-03  0.8000E+01
      6.358 -0.3788E-03  0.8000E+01
      6.491  0.8406E-03  0.8000E+01
      6.625  0.6173E-02  0.8001E+01
      6.758  0.7684E-01  0.8011E+01
      6.892  0.2212E+00  0.8041E+01
      7.025  0.2001E+00  0.8067E+01
      7.158  0.2177E+00  0.8096E+01
      7.292  0.5493E+00  0.8170E+01
      7.425  0.6506E+00  0.8256E+01
      7.559  0.4859E+00  0.8321E+01
      7.692  0.1171E+01  0.8478E+01
      7.825  0.1827E+01  0.8721E+01
      7.959  0.1297E+01  0.8894E+01
      8.092  0.1684E+01  0.9119E+01
      8.226  0.2568E+01  0.9462E+01
      8.359  0.2706E+01  0.9823E+01
      8.492  0.2179E+01  0.1011E+02
      8.626  0.1249E+01  0.1028E+02
      8.759  0.7641E+00  0.1038E+02
      8.893  0.1125E+01  0.1053E+02
      9.026  0.2376E+01  0.1085E+02
      9.159  0.3497E+01  0.1132E+02
      9.293  0.2514E+01  0.1165E+02
      9.426  0.1120E+01  0.1180E+02
      9.560  0.1999E+01  0.1207E+02
      9.693  0.3855E+01  0.1258E+02
      9.826  0.5381E+01  0.1330E+02
      9.960  0.1075E+02  0.1473E+02
     10.093  0.1398E+02  0.1660E+02
     10.227  0.1228E+02  0.1824E+02
     10.360  0.1313E+02  0.1999E+02
     10.493  0.1465E+02  0.2194E+02
     10.627  0.1193E+02  0.2353E+02
     10.760  0.3756E+01  0.2403E+02
     10.894 -0.1727E+00  0.2401E+02
     11.027 -0.1219E+00  0.2399E+02
     11.160  0.3316E-01  0.2400E+02
     11.294  0.1039E-01  0.2400E+02
     11.427  0.8143E-03  0.2400E+02
     11.561  0.2323E-04  0.2400E+02
     11.694  0.2549E-06  0.2400E+02
     11.827  0.1091E-08  0.2400E+02
     11.961  0.1836E-11  0.2400E+02
     12.094  0.1205E-14  0.2400E+02
     12.228  0.0000E+00  0.2400E+02
     12.361  0.0000E+00  0.2400E+02
     12.494  0.0000E+00  0.2400E+02
     12.628  0.0000E+00  0.2400E+02
     12.761  0.0000E+00  0.2400E+02
