    1    1    1    1
  0.2628851E+02  0.3337544E-09  0.3337544E-09  0.3337544E-09  0.5000000E-15
  1.000000000000000E-004
  CAR 
 Ce                                      
     12    294     24
 
  0.0000000E+00  0.0000000E+00  0.0000000E+00  0.5787037E-03
    1      -25.259653   1.000000
    2      -25.248586   1.000000
    3       -8.364616   1.000000
    4       -8.362017   1.000000
    5       -5.502270   1.000000
    6       -5.500133   1.000000
    7       -5.498034   1.000000
    8       -5.496118   1.000000
    9        6.621831   1.000000
   10        6.631367   1.000000
   11        9.277960   1.028904
   12        9.298891   1.038819
   13        9.810026  -0.021918
   14        9.816705  -0.018924
   15        9.824568  -0.015581
   16        9.832341  -0.012503
   17       10.041053   0.001938
   18       10.048894   0.001710
   19       10.649118   0.000000
   20       10.655912   0.000000
   21       10.729936   0.000000
   22       10.737981   0.000000
   23       10.745234   0.000000
   24       10.751095   0.000000
 
  0.8333333E-01 -0.1293692E-17  0.4774983E-14  0.3472222E-02
    1      -25.224403   1.000000
    2      -25.213289   1.000000
    3       -8.441490   1.000000
    4       -8.438773   1.000000
    5       -5.683486   1.000000
    6       -5.679817   1.000000
    7       -5.527557   1.000000
    8       -5.525520   1.000000
    9        6.935650   1.000000
   10        6.945107   1.000000
   11        9.194233   0.999603
   12        9.213633   1.003790
   13        9.797646  -0.027734
   14        9.812339  -0.020867
   15        9.825293  -0.015284
   16        9.832324  -0.012509
   17       10.040923   0.001941
   18       10.047731   0.001742
   19       10.487407   0.000000
   20       10.493030   0.000000
   21       10.549734   0.000000
   22       10.555310   0.000000
   23       10.708835   0.000000
   24       10.729471   0.000000
 
  0.8333333E-01  0.8333333E-01  0.8333333E-01  0.1157407E-02
    1      -25.224403   1.000000
    2      -25.213288   1.000000
    3       -8.441225   1.000000
    4       -8.439028   1.000000
    5       -5.682403   1.000000
    6       -5.680743   1.000000
    7       -5.529697   1.000000
    8       -5.523563   1.000000
    9        6.935673   1.000000
   10        6.945120   1.000000
   11        9.194239   0.999604
   12        9.213625   1.003788
   13        9.800586  -0.026330
   14        9.811809  -0.021107
   15        9.816793  -0.018886
   16        9.838642  -0.010190
   17       10.038561   0.002014
   18       10.049869   0.001683
   19       10.482709   0.000000
   20       10.500204   0.000000
   21       10.542680   0.000000
   22       10.560089   0.000000
   23       10.708663   0.000000
   24       10.729347   0.000000
 
  0.1666667E+00  0.7432849E-18 -0.4678098E-14  0.3472222E-02
    1      -25.131115   1.000000
    2      -25.119928   1.000000
    3       -8.679110   1.000000
    4       -8.675986   1.000000
    5       -6.118321   1.000000
    6       -6.115319   1.000000
    7       -5.603997   1.000000
    8       -5.601966   1.000000
    9        7.603804   1.000000
   10        7.612940   1.000000
   11        9.128179   0.995079
   12        9.145468   0.995206
   13        9.743385  -0.049876
   14        9.762227  -0.043948
   15        9.843689  -0.008463
   16        9.850433  -0.006334
   17       10.056354   0.001510
   18       10.062667   0.001354
   19       10.276894   0.000006
   20       10.282823   0.000005
   21       10.359113   0.000000
   22       10.364299   0.000000
   23       10.706795   0.000000
   24       10.728126   0.000000
 
  0.1666667E+00  0.1666667E+00  0.1666667E+00  0.1157407E-02
    1      -25.131115   1.000000
    2      -25.119928   1.000000
    3       -8.678043   1.000000
    4       -8.677010   1.000000
    5       -6.116975   1.000000
    6       -6.116591   1.000000
    7       -5.606117   1.000000
    8       -5.600005   1.000000
    9        7.603904   1.000000
   10        7.613003   1.000000
   11        9.128167   0.995079
   12        9.145437   0.995205
   13        9.744291  -0.049673
   14        9.761317  -0.044302
   15        9.837223  -0.010696
   16        9.857543  -0.004314
   17       10.050499   0.001665
   18       10.067905   0.001234
   19       10.271690   0.000007
   20       10.289828   0.000004
   21       10.352953   0.000000
   22       10.368866   0.000000
   23       10.706454   0.000000
   24       10.728123   0.000000
 
  0.2500000E+00  0.1138449E-16  0.4331620E-16  0.3472222E-02
    1      -24.998926   1.000000
    2      -24.987628   1.000000
    3       -9.055157   1.000000
    4       -9.051428   1.000000
    5       -6.579427   1.000000
    6       -6.577205   1.000000
    7       -5.705473   1.000000
    8       -5.703452   1.000000
    9        7.830039   1.000000
   10        7.838594   1.000000
   11        9.518406   0.595531
   12        9.537854   0.493284
   13        9.690499  -0.036346
   14        9.709178  -0.048105
   15        9.874893  -0.000341
   16        9.880779   0.000712
   17       10.100254   0.000661
   18       10.107130   0.000573
   19       10.164201   0.000153
   20       10.170075   0.000132
   21       10.267107   0.000008
   22       10.271751   0.000007
   23       10.711836   0.000000
   24       10.733409   0.000000
 
  0.2500000E+00  0.2500000E+00  0.2500000E+00  0.1157407E-02
    1      -24.998925   1.000000
    2      -24.987625   1.000000
    3       -9.053528   1.000000
    4       -9.052976   1.000000
    5       -6.579005   1.000000
    6       -6.577631   1.000000
    7       -5.707584   1.000000
    8       -5.701499   1.000000
    9        7.830197   1.000000
   10        7.838692   1.000000
   11        9.518251   0.596340
   12        9.537956   0.492744
   13        9.691050  -0.036832
   14        9.708572  -0.047865
   15        9.869344  -0.001468
   16        9.887089   0.001686
   17       10.093061   0.000765
   18       10.113725   0.000498
   19       10.159002   0.000174
   20       10.176658   0.000111
   21       10.261745   0.000010
   22       10.275882   0.000006
   23       10.711527   0.000000
   24       10.733371   0.000000
 
  0.3333333E+00 -0.1072588E-16  0.4839115E-14  0.3472222E-02
    1      -24.862917   1.000000
    2      -24.851505   1.000000
    3       -9.483015   1.000000
    4       -9.478789   1.000000
    5       -6.923414   1.000000
    6       -6.921630   1.000000
    7       -5.804921   1.000000
    8       -5.802905   1.000000
    9        7.649049   1.000000
   10        7.656777   1.000000
   11        9.499218   0.692373
   12        9.520061   0.586931
   13        9.905407   0.003693
   14        9.910824   0.004080
   15        9.951877   0.004847
   16        9.961156   0.004667
   17       10.148570   0.000225
   18       10.156636   0.000185
   19       10.254663   0.000012
   20       10.258963   0.000011
   21       10.278862   0.000006
   22       10.282295   0.000005
   23       10.719069   0.000000
   24       10.740536   0.000000
 
  0.3333333E+00  0.3333333E+00  0.3333333E+00  0.1157407E-02
    1      -24.862909   1.000000
    2      -24.851496   1.000000
    3       -9.481784   1.000000
    4       -9.479926   1.000000
    5       -6.923996   1.000000
    6       -6.921121   1.000000
    7       -5.807032   1.000000
    8       -5.800965   1.000000
    9        7.649217   1.000000
   10        7.656874   1.000000
   11        9.499031   0.693284
   12        9.520185   0.586290
   13        9.900720   0.003287
   14        9.917107   0.004427
   15        9.955153   0.004793
   16        9.956298   0.004772
   17       10.150173   0.000216
   18       10.154955   0.000193
   19       10.253047   0.000013
   20       10.266513   0.000008
   21       10.271008   0.000007
   22       10.284604   0.000005
   23       10.718750   0.000000
   24       10.740506   0.000000
 
  0.4166667E+00 -0.5635793E-17 -0.4714163E-14  0.3472222E-02
    1      -24.758003   1.000000
    2      -24.746481   1.000000
    3       -9.817426   1.000000
    4       -9.812962   1.000000
    5       -7.119183   1.000000
    6       -7.117500   1.000000
    7       -5.874481   1.000000
    8       -5.872473   1.000000
    9        7.472050   1.000000
   10        7.479189   1.000000
   11        9.408352   1.002911
   12        9.428976   0.959045
   13        9.921178   0.004599
   14        9.926681   0.004769
   15        9.959147   0.004713
   16        9.964443   0.004584
   17       10.260661   0.000010
   18       10.276367   0.000006
   19       10.386881   0.000000
   20       10.391550   0.000000
   21       10.419808   0.000000
   22       10.424177   0.000000
   23       10.727442   0.000000
   24       10.748243   0.000000
 
  0.4166667E+00  0.4166667E+00  0.4166667E+00  0.1157407E-02
    1      -24.757991   1.000000
    2      -24.746468   1.000000
    3       -9.816435   1.000000
    4       -9.813873   1.000000
    5       -7.120258   1.000000
    6       -7.116538   1.000000
    7       -5.876587   1.000000
    8       -5.870544   1.000000
    9        7.472222   1.000000
   10        7.479286   1.000000
   11        9.408146   1.003269
   12        9.429117   0.958689
   13        9.916914   0.004418
   14        9.934748   0.004908
   15        9.953330   0.004825
   16        9.966567   0.004527
   17       10.263659   0.000009
   18       10.273222   0.000007
   19       10.383424   0.000000
   20       10.399625   0.000000
   21       10.412733   0.000000
   22       10.426969   0.000000
   23       10.727203   0.000000
   24       10.748161   0.000000
 
  0.5000000E+00  0.2276898E-16  0.8663240E-16  0.1736111E-02
    1      -24.718894   1.000000
    2      -24.707332   1.000000
    3       -9.943179   1.000000
    4       -9.938657   1.000000
    5       -7.182151   1.000000
    6       -7.180474   1.000000
    7       -5.899780   1.000000
    8       -5.897775   1.000000
    9        7.406227   1.000000
   10        7.413174   1.000000
   11        9.373010   1.043592
   12        9.393540   1.024862
   13        9.924516   0.004710
   14        9.929646   0.004835
   15        9.952870   0.004832
   16        9.957528   0.004747
   17       10.295421   0.000003
   18       10.313700   0.000002
   19       10.520560   0.000000
   20       10.523827   0.000000
   21       10.544221   0.000000
   22       10.546176   0.000000
   23       10.742281   0.000000
   24       10.761267   0.000000
 
  0.5000000E+00  0.5000000E+00  0.5000000E+00  0.5787037E-03
    1      -24.718880   1.000000
    2      -24.707318   1.000000
    3       -9.942264   1.000000
    4       -9.939500   1.000000
    5       -7.183365   1.000000
    6       -7.179385   1.000000
    7       -5.901886   1.000000
    8       -5.895850   1.000000
    9        7.406401   1.000000
   10        7.413271   1.000000
   11        9.372800   1.043721
   12        9.393683   1.024685
   13        9.920822   0.004585
   14        9.939485   0.004934
   15        9.944891   0.004922
   16        9.959494   0.004705
   17       10.297564   0.000003
   18       10.311562   0.000002
   19       10.518470   0.000000
   20       10.529748   0.000000
   21       10.539883   0.000000
   22       10.546625   0.000000
   23       10.742876   0.000000
   24       10.760500   0.000000
 
  0.8333333E-01  0.8333333E-01  0.1583548E-16  0.3472222E-02
    1      -25.213655   1.000000
    2      -25.202538   1.000000
    3       -8.465638   1.000000
    4       -8.463049   1.000000
    5       -5.698843   1.000000
    6       -5.695447   1.000000
    7       -5.586050   1.000000
    8       -5.582496   1.000000
    9        7.045270   1.000000
   10        7.054694   1.000000
   11        9.147598   0.995260
   12        9.166200   0.996186
   13        9.772609  -0.039569
   14        9.789441  -0.031681
   15        9.835752  -0.011230
   16        9.848715  -0.006857
   17       10.045791   0.001798
   18       10.055235   0.001539
   19       10.480112   0.000000
   20       10.488234   0.000000
   21       10.525231   0.000000
   22       10.535110   0.000000
   23       10.657693   0.000000
   24       10.675801   0.000000
 
  0.1666667E+00  0.8333333E-01  0.1197581E-14  0.3472222E-02
    1      -25.140079   1.000000
    2      -25.128902   1.000000
    3       -8.642353   1.000000
    4       -8.639580   1.000000
    5       -6.040306   1.000000
    6       -6.037420   1.000000
    7       -5.661345   1.000000
    8       -5.658420   1.000000
    9        7.639914   1.000000
   10        7.649072   1.000000
   11        8.999184   0.998896
   12        9.015234   0.998530
   13        9.705042  -0.046290
   14        9.723959  -0.051460
   15        9.860369  -0.003576
   16        9.872252  -0.000861
   17       10.067432   0.001244
   18       10.078167   0.001021
   19       10.323525   0.000001
   20       10.330933   0.000001
   21       10.382381   0.000000
   22       10.390341   0.000000
   23       10.630880   0.000000
   24       10.650459   0.000000
 
  0.8333333E-01  0.8333333E-01 -0.8333333E-01  0.3472222E-02
    1      -25.140080   1.000000
    2      -25.128903   1.000000
    3       -8.642532   1.000000
    4       -8.639408   1.000000
    5       -6.040762   1.000000
    6       -6.036998   1.000000
    7       -5.660069   1.000000
    8       -5.659640   1.000000
    9        7.639905   1.000000
   10        7.649070   1.000000
   11        8.999179   0.998896
   12        9.015220   0.998531
   13        9.704955  -0.046247
   14        9.724042  -0.051466
   15        9.862688  -0.002997
   16        9.869739  -0.001383
   17       10.069727   0.001194
   18       10.076088   0.001062
   19       10.326292   0.000001
   20       10.327605   0.000001
   21       10.385789   0.000000
   22       10.387378   0.000000
   23       10.631267   0.000000
   24       10.650193   0.000000
 
  0.1666667E+00  0.8333333E-01  0.1666667E+00  0.3472222E-02
    1      -25.140080   1.000000
    2      -25.128903   1.000000
    3       -8.641843   1.000000
    4       -8.640066   1.000000
    5       -6.039615   1.000000
    6       -6.038041   1.000000
    7       -5.662792   1.000000
    8       -5.657083   1.000000
    9        7.639966   1.000000
   10        7.649104   1.000000
   11        8.999178   0.998896
   12        9.015215   0.998531
   13        9.705236  -0.046384
   14        9.723749  -0.051443
   15        9.858024  -0.004186
   16        9.874926  -0.000335
   17       10.064847   0.001303
   18       10.080447   0.000978
   19       10.319866   0.000001
   20       10.336435   0.000001
   21       10.377782   0.000000
   22       10.393254   0.000000
   23       10.630473   0.000000
   24       10.650654   0.000000
 
  0.8333333E-01  0.1666667E+00 -0.1202949E-14  0.3472222E-02
    1      -25.140079   1.000000
    2      -25.128902   1.000000
    3       -8.642353   1.000000
    4       -8.639580   1.000000
    5       -6.040306   1.000000
    6       -6.037420   1.000000
    7       -5.661345   1.000000
    8       -5.658420   1.000000
    9        7.639914   1.000000
   10        7.649072   1.000000
   11        8.999184   0.998896
   12        9.015234   0.998530
   13        9.705042  -0.046290
   14        9.723959  -0.051460
   15        9.860368  -0.003576
   16        9.872253  -0.000861
   17       10.067431   0.001244
   18       10.078167   0.001021
   19       10.323525   0.000001
   20       10.330933   0.000001
   21       10.382381   0.000000
   22       10.390342   0.000000
   23       10.630880   0.000000
   24       10.650459   0.000000
 
  0.2500000E+00  0.8333333E-01 -0.4695014E-14  0.3472222E-02
    1      -25.020940   1.000000
    2      -25.009665   1.000000
    3       -8.960148   1.000000
    4       -8.956838   1.000000
    5       -6.494444   1.000000
    6       -6.492168   1.000000
    7       -5.762281   1.000000
    8       -5.759701   1.000000
    9        8.064599   1.000000
   10        8.073412   1.000000
   11        9.215976   1.004409
   12        9.231217   1.009045
   13        9.591849   0.224350
   14        9.611042   0.145608
   15        9.903686   0.003552
   16        9.912870   0.004205
   17       10.112714   0.000509
   18       10.122325   0.000412
   19       10.196124   0.000066
   20       10.204823   0.000052
   21       10.281074   0.000005
   22       10.289105   0.000004
   23       10.628903   0.000000
   24       10.649260   0.000000
 
  0.8333333E-01  0.8333333E-01 -0.1666667E+00  0.3472222E-02
    1      -25.020942   1.000000
    2      -25.009667   1.000000
    3       -8.960348   1.000000
    4       -8.956648   1.000000
    5       -6.494778   1.000000
    6       -6.491847   1.000000
    7       -5.761422   1.000000
    8       -5.760517   1.000000
    9        8.064625   1.000000
   10        8.073438   1.000000
   11        9.215979   1.004409
   12        9.231132   1.009016
   13        9.591835   0.224413
   14        9.611060   0.145538
   15        9.906627   0.003788
   16        9.909661   0.004004
   17       10.116428   0.000469
   18       10.119234   0.000441
   19       10.198482   0.000062
   20       10.201601   0.000057
   21       10.282481   0.000005
   22       10.288095   0.000004
   23       10.629282   0.000000
   24       10.649000   0.000000
 
  0.2500000E+00  0.1666667E+00  0.2500000E+00  0.3472222E-02
    1      -25.020940   1.000000
    2      -25.009665   1.000000
    3       -8.958849   1.000000
    4       -8.958080   1.000000
    5       -6.493729   1.000000
    6       -6.492865   1.000000
    7       -5.764028   1.000000
    8       -5.758086   1.000000
    9        8.064749   1.000000
   10        8.073510   1.000000
   11        9.215956   1.004403
   12        9.231147   1.009021
   13        9.591919   0.224044
   14        9.610946   0.145970
   15        9.900101   0.003228
   16        9.917026   0.004423
   17       10.108364   0.000558
   18       10.125975   0.000380
   19       10.193370   0.000072
   20       10.208823   0.000047
   21       10.278100   0.000006
   22       10.291185   0.000004
   23       10.628479   0.000000
   24       10.649425   0.000000
 
  0.8333333E-01  0.2500000E+00  0.4676477E-14  0.3472222E-02
    1      -25.020940   1.000000
    2      -25.009665   1.000000
    3       -8.960148   1.000000
    4       -8.956838   1.000000
    5       -6.494444   1.000000
    6       -6.492168   1.000000
    7       -5.762281   1.000000
    8       -5.759701   1.000000
    9        8.064599   1.000000
   10        8.073412   1.000000
   11        9.215976   1.004409
   12        9.231217   1.009045
   13        9.591849   0.224350
   14        9.611042   0.145608
   15        9.903686   0.003552
   16        9.912870   0.004205
   17       10.112714   0.000509
   18       10.122325   0.000412
   19       10.196124   0.000066
   20       10.204823   0.000052
   21       10.281074   0.000005
   22       10.289105   0.000004
   23       10.628903   0.000000
   24       10.649260   0.000000
 
  0.3333333E+00  0.8333333E-01  0.4277589E-16  0.3472222E-02
    1      -24.884219   1.000000
    2      -24.872814   1.000000
    3       -9.356735   1.000000
    4       -9.352828   1.000000
    5       -6.877025   1.000000
    6       -6.875145   1.000000
    7       -5.872439   1.000000
    8       -5.870086   1.000000
    9        7.935491   1.000000
   10        7.943575   1.000000
   11        9.439100   0.931548
   12        9.457740   0.870614
   13        9.717890  -0.050636
   14        9.734958  -0.051263
   15        9.970713   0.004406
   16        9.976920   0.004208
   17       10.145172   0.000244
   18       10.148615   0.000224
   19       10.206805   0.000050
   20       10.219002   0.000035
   21       10.284108   0.000005
   22       10.294282   0.000003
   23       10.625495   0.000000
   24       10.645990   0.000000
 
  0.8333333E-01  0.8333333E-01 -0.2500000E+00  0.3472222E-02
    1      -24.884221   1.000000
    2      -24.872817   1.000000
    3       -9.356855   1.000000
    4       -9.352703   1.000000
    5       -6.877111   1.000000
    6       -6.875055   1.000000
    7       -5.871902   1.000000
    8       -5.870597   1.000000
    9        7.935524   1.000000
   10        7.943604   1.000000
   11        9.439038   0.931728
   12        9.457805   0.870378
   13        9.718646  -0.050779
   14        9.734156  -0.051344
   15        9.968046   0.004485
   16        9.979637   0.004116
   17       10.141756   0.000264
   18       10.153004   0.000202
   19       10.204825   0.000052
   20       10.220566   0.000034
   21       10.280148   0.000005
   22       10.297506   0.000003
   23       10.625952   0.000000
   24       10.645665   0.000000
 
  0.3333333E+00  0.2500000E+00  0.3333333E+00  0.3472222E-02
    1      -24.884213   1.000000
    2      -24.872807   1.000000
    3       -9.355443   1.000000
    4       -9.354049   1.000000
    5       -6.877213   1.000000
    6       -6.875003   1.000000
    7       -5.874334   1.000000
    8       -5.868340   1.000000
    9        7.935656   1.000000
   10        7.943677   1.000000
   11        9.438997   0.931848
   12        9.457811   0.870358
   13        9.718187  -0.050694
   14        9.734697  -0.051290
   15        9.968291   0.004478
   16        9.979664   0.004115
   17       10.143222   0.000255
   18       10.150414   0.000215
   19       10.205634   0.000051
   20       10.219889   0.000034
   21       10.287567   0.000004
   22       10.291123   0.000004
   23       10.625099   0.000000
   24       10.646137   0.000000
 
  0.8333333E-01  0.3333333E+00 -0.6185322E-16  0.3472222E-02
    1      -24.884219   1.000000
    2      -24.872814   1.000000
    3       -9.356735   1.000000
    4       -9.352828   1.000000
    5       -6.877025   1.000000
    6       -6.875145   1.000000
    7       -5.872439   1.000000
    8       -5.870086   1.000000
    9        7.935491   1.000000
   10        7.943575   1.000000
   11        9.439100   0.931548
   12        9.457740   0.870614
   13        9.717890  -0.050636
   14        9.734958  -0.051263
   15        9.970713   0.004406
   16        9.976920   0.004208
   17       10.145173   0.000244
   18       10.148615   0.000224
   19       10.206805   0.000050
   20       10.219003   0.000035
   21       10.284108   0.000005
   22       10.294282   0.000003
   23       10.625495   0.000000
   24       10.645990   0.000000
 
  0.4166667E+00  0.8333333E-01  0.1250334E-14  0.3472222E-02
    1      -24.768465   1.000000
    2      -24.756952   1.000000
    3       -9.713685   1.000000
    4       -9.709403   1.000000
    5       -7.123910   1.000000
    6       -7.122111   1.000000
    7       -5.961706   1.000000
    8       -5.959516   1.000000
    9        7.758069   1.000000
   10        7.765425   1.000000
   11        9.300929   1.039734
   12        9.318669   1.046766
   13        9.864721  -0.002509
   14        9.881067   0.000759
   15        9.966593   0.004526
   16        9.979420   0.004124
   17       10.235848   0.000022
   18       10.248941   0.000015
   19       10.285056   0.000005
   20       10.293228   0.000004
   21       10.393284   0.000000
   22       10.405772   0.000000
   23       10.602354   0.000000
   24       10.622015   0.000000
 
  0.8333333E-01  0.8333333E-01 -0.3333333E+00  0.3472222E-02
    1      -24.768465   1.000000
    2      -24.756953   1.000000
    3       -9.713734   1.000000
    4       -9.709349   1.000000
    5       -7.123774   1.000000
    6       -7.122239   1.000000
    7       -5.961412   1.000000
    8       -5.959805   1.000000
    9        7.758096   1.000000
   10        7.765448   1.000000
   11        9.300900   1.039721
   12        9.318703   1.046778
   13        9.866226  -0.002159
   14        9.879557   0.000505
   15        9.964367   0.004586
   16        9.981703   0.004044
   17       10.234485   0.000022
   18       10.251347   0.000013
   19       10.282319   0.000005
   20       10.295193   0.000003
   21       10.390520   0.000000
   22       10.408020   0.000000
   23       10.603141   0.000000
   24       10.621409   0.000000
 
  0.4166667E+00  0.3333333E+00  0.4166667E+00  0.3472222E-02
    1      -24.768456   1.000000
    2      -24.756942   1.000000
    3       -9.712606   1.000000
    4       -9.710400   1.000000
    5       -7.124681   1.000000
    6       -7.121426   1.000000
    7       -5.963694   1.000000
    8       -5.957691   1.000000
    9        7.758241   1.000000
   10        7.765526   1.000000
   11        9.300799   1.039676
   12        9.318767   1.046799
   13        9.865081  -0.002424
   14        9.880906   0.000733
   15        9.966602   0.004526
   16        9.979333   0.004127
   17       10.237919   0.000020
   18       10.246957   0.000015
   19       10.287490   0.000004
   20       10.290467   0.000004
   21       10.395663   0.000000
   22       10.403718   0.000000
   23       10.602056   0.000000
   24       10.622151   0.000000
 
  0.8333333E-01  0.4166667E+00 -0.1258572E-14  0.3472222E-02
    1      -24.768465   1.000000
    2      -24.756952   1.000000
    3       -9.713685   1.000000
    4       -9.709403   1.000000
    5       -7.123910   1.000000
    6       -7.122111   1.000000
    7       -5.961706   1.000000
    8       -5.959516   1.000000
    9        7.758069   1.000000
   10        7.765425   1.000000
   11        9.300929   1.039734
   12        9.318669   1.046766
   13        9.864721  -0.002509
   14        9.881066   0.000759
   15        9.966593   0.004526
   16        9.979420   0.004124
   17       10.235848   0.000022
   18       10.248941   0.000015
   19       10.285056   0.000005
   20       10.293228   0.000004
   21       10.393284   0.000000
   22       10.405772   0.000000
   23       10.602354   0.000000
   24       10.622015   0.000000
 
  0.5000000E+00  0.8333333E-01 -0.4621444E-14  0.3472222E-02
    1      -24.707052   1.000000
    2      -24.695478   1.000000
    3       -9.904304   1.000000
    4       -9.899873   1.000000
    5       -7.234425   1.000000
    6       -7.232581   1.000000
    7       -6.005998   1.000000
    8       -6.003904   1.000000
    9        7.674225   1.000000
   10        7.681257   1.000000
   11        9.223936   1.006698
   12        9.241277   1.012674
   13        9.908591   0.003931
   14        9.923711   0.004685
   15        9.945279   0.004919
   16        9.957923   0.004739
   17       10.282244   0.000005
   18       10.299074   0.000003
   19       10.394650   0.000000
   20       10.405653   0.000000
   21       10.519058   0.000000
   22       10.521775   0.000000
   23       10.574848   0.000000
   24       10.580400   0.000000
 
  0.8333333E-01  0.8333333E-01 -0.4166667E+00  0.3472222E-02
    1      -24.707052   1.000000
    2      -24.695478   1.000000
    3       -9.904299   1.000000
    4       -9.899873   1.000000
    5       -7.234193   1.000000
    6       -7.232801   1.000000
    7       -6.005914   1.000000
    8       -6.004003   1.000000
    9        7.674245   1.000000
   10        7.681271   1.000000
   11        9.223934   1.006698
   12        9.241291   1.012680
   13        9.910119   0.004035
   14        9.922152   0.004634
   15        9.943690   0.004928
   16        9.959570   0.004703
   17       10.281938   0.000005
   18       10.299376   0.000003
   19       10.394627   0.000000
   20       10.405755   0.000000
   21       10.511477   0.000000
   22       10.530837   0.000000
   23       10.571497   0.000000
   24       10.582140   0.000000
 
  0.5000000E+00  0.4166667E+00  0.5000000E+00  0.3472222E-02
    1      -24.707040   1.000000
    2      -24.695465   1.000000
    3       -9.903323   1.000000
    4       -9.900782   1.000000
    5       -7.235407   1.000000
    6       -7.231705   1.000000
    7       -6.008042   1.000000
    8       -6.002038   1.000000
    9        7.674402   1.000000
   10        7.681355   1.000000
   11        9.223801   1.006657
   12        9.241379   1.012714
   13        9.908375   0.003916
   14        9.925387   0.004735
   15        9.943918   0.004927
   16        9.957944   0.004738
   17       10.283481   0.000005
   18       10.298103   0.000003
   19       10.396361   0.000000
   20       10.403494   0.000000
   21       10.513427   0.000000
   22       10.528655   0.000000
   23       10.573255   0.000000
   24       10.580903   0.000000
 
  0.8333333E-01  0.5000000E+00  0.4617662E-14  0.3472222E-02
    1      -24.707052   1.000000
    2      -24.695478   1.000000
    3       -9.904304   1.000000
    4       -9.899873   1.000000
    5       -7.234425   1.000000
    6       -7.232581   1.000000
    7       -6.005998   1.000000
    8       -6.003904   1.000000
    9        7.674225   1.000000
   10        7.681257   1.000000
   11        9.223936   1.006698
   12        9.241277   1.012674
   13        9.908591   0.003931
   14        9.923711   0.004685
   15        9.945279   0.004919
   16        9.957923   0.004739
   17       10.282244   0.000005
   18       10.299074   0.000003
   19       10.394650   0.000000
   20       10.405654   0.000000
   21       10.519058   0.000000
   22       10.521775   0.000000
   23       10.574848   0.000000
   24       10.580400   0.000000
 
 -0.4166667E+00  0.8333333E-01 -0.8717270E-16  0.3472222E-02
    1      -24.720107   1.000000
    2      -24.708546   1.000000
    3       -9.863547   1.000000
    4       -9.859103   1.000000
    5       -7.216390   1.000000
    6       -7.214436   1.000000
    7       -5.993818   1.000000
    8       -5.991758   1.000000
    9        7.708149   1.000000
   10        7.715282   1.000000
   11        9.240334   1.012316
   12        9.257943   1.019577
   13        9.914747   0.004309
   14        9.918641   0.004496
   15        9.952128   0.004844
   16        9.955563   0.004786
   17       10.281052   0.000005
   18       10.297965   0.000003
   19       10.342588   0.000001
   20       10.354378   0.000000