Automatically generated mesh
     294
Reciprocal lattice
    0.00000000000000    0.00000000000000    0.00000000000000             1
    0.08333333333334   -0.00000000000000    0.00000000000000             6
    0.08333333333334    0.08333333333334    0.08333333333333             2
    0.16666666666666    0.00000000000000   -0.00000000000000             6
    0.16666666666666    0.16666666666666    0.16666666666667             2
    0.25000000000000    0.00000000000000    0.00000000000000             6
    0.25000000000000    0.25000000000000    0.25000000000000             2
    0.33333333333334   -0.00000000000000    0.00000000000000             6
    0.33333333333334    0.33333333333334    0.33333333333333             2
    0.41666666666666   -0.00000000000000   -0.00000000000000             6
    0.41666666666666    0.41666666666666    0.41666666666667             2
    0.50000000000000    0.00000000000000    0.00000000000000             3
    0.50000000000000    0.50000000000000    0.50000000000000             1
    0.08333333333334    0.08333333333334    0.00000000000000             6
    0.16666666666666    0.08333333333334    0.00000000000000             6
    0.08333333333334    0.08333333333334   -0.08333333333333             6
    0.16666666666666    0.08333333333333    0.16666666666666             6
    0.08333333333334    0.16666666666666   -0.00000000000000             6
    0.25000000000000    0.08333333333334   -0.00000000000000             6
    0.08333333333334    0.08333333333334   -0.16666666666666             6
    0.25000000000000    0.16666666666666    0.25000000000000             6
    0.08333333333334    0.25000000000000    0.00000000000000             6
    0.33333333333334    0.08333333333334    0.00000000000000             6
    0.08333333333334    0.08333333333334   -0.25000000000000             6
    0.33333333333334    0.25000000000000    0.33333333333334             6
    0.08333333333334    0.33333333333334   -0.00000000000000             6
    0.41666666666666    0.08333333333334    0.00000000000000             6
    0.08333333333334    0.08333333333334   -0.33333333333333             6
    0.41666666666666    0.33333333333333    0.41666666666666             6
    0.08333333333334    0.41666666666666   -0.00000000000000             6
    0.50000000000000    0.08333333333334   -0.00000000000000             6
    0.08333333333334    0.08333333333334   -0.41666666666666             6
    0.50000000000000    0.41666666666666    0.50000000000000             6
    0.08333333333334    0.50000000000000    0.00000000000000             6
   -0.41666666666666    0.08333333333334   -0.00000000000000             6
    0.08333333333334    0.08333333333334    0.50000000000000             6
   -0.41666666666666    0.50000000000000   -0.41666666666666             6
    0.08333333333334   -0.41666666666666    0.00000000000000             6
   -0.33333333333334    0.08333333333334    0.00000000000000             6
    0.08333333333334    0.08333333333334    0.41666666666667             6
   -0.33333333333334   -0.41666666666667   -0.33333333333334             6
    0.08333333333334   -0.33333333333334   -0.00000000000000             6
   -0.25000000000000    0.08333333333334   -0.00000000000000             6
    0.08333333333334    0.08333333333334    0.33333333333334             6
   -0.25000000000000   -0.33333333333334   -0.25000000000000             6
    0.08333333333334   -0.25000000000000    0.00000000000000             6
   -0.16666666666666    0.08333333333334   -0.00000000000000             6
    0.08333333333334    0.08333333333334    0.25000000000000             6
   -0.16666666666666   -0.25000000000000   -0.16666666666666             6
    0.08333333333334   -0.16666666666666    0.00000000000000             6
   -0.08333333333334    0.08333333333334    0.00000000000000             6
    0.08333333333334    0.08333333333334    0.16666666666667             6
    0.16666666666666    0.16666666666666    0.00000000000000             6
    0.25000000000000    0.16666666666666    0.00000000000000             6
    0.16666666666666    0.16666666666666   -0.08333333333334             6
    0.25000000000000    0.08333333333334    0.25000000000000             6
    0.16666666666666    0.25000000000000   -0.00000000000000             6
    0.33333333333334    0.16666666666666   -0.00000000000000             6
    0.16666666666666    0.16666666666666   -0.16666666666667             6
    0.33333333333334    0.16666666666667    0.33333333333334             6
    0.16666666666666    0.33333333333334    0.00000000000000             6
    0.41666666666666    0.16666666666666    0.00000000000000             6
    0.16666666666666    0.16666666666666   -0.25000000000000             6
    0.41666666666666    0.25000000000000    0.41666666666666             6
    0.16666666666666    0.41666666666666   -0.00000000000000             6
    0.50000000000000    0.16666666666666    0.00000000000000             6
    0.16666666666666    0.16666666666666   -0.33333333333334             6
    0.50000000000000    0.33333333333334    0.50000000000000             6
    0.16666666666666    0.50000000000000   -0.00000000000000             6
   -0.41666666666666    0.16666666666666   -0.00000000000000             6
    0.16666666666666    0.16666666666666   -0.41666666666667             6
   -0.41666666666666    0.41666666666667   -0.41666666666666             6
    0.16666666666666   -0.41666666666666    0.00000000000000             6
   -0.33333333333334    0.16666666666666   -0.00000000000000             6
    0.16666666666666    0.16666666666666    0.50000000000000             6
   -0.33333333333334    0.50000000000000   -0.33333333333334             6
    0.16666666666666   -0.33333333333334    0.00000000000000             6
   -0.25000000000000    0.16666666666666    0.00000000000000             6
    0.16666666666666    0.16666666666666    0.41666666666666             6
   -0.25000000000000   -0.41666666666666   -0.25000000000000             6
    0.16666666666666   -0.25000000000000   -0.00000000000000             6
   -0.16666666666666    0.16666666666666   -0.00000000000000             6
    0.16666666666666    0.16666666666666    0.33333333333333             6
    0.25000000000000    0.25000000000000    0.00000000000000             6
    0.33333333333334    0.25000000000000    0.00000000000000             6
    0.25000000000000    0.25000000000000   -0.08333333333334             6
    0.33333333333334    0.08333333333334    0.33333333333333             6
    0.25000000000000    0.33333333333334   -0.00000000000000             6
    0.41666666666666    0.25000000000000   -0.00000000000000             6
    0.25000000000000    0.25000000000000   -0.16666666666666             6
    0.41666666666666    0.16666666666666    0.41666666666667             6
    0.25000000000000    0.41666666666666    0.00000000000000             6
    0.50000000000000    0.25000000000000    0.00000000000000             6
    0.25000000000000    0.25000000000000   -0.25000000000000             6
    0.50000000000000    0.25000000000000    0.50000000000000             6
    0.25000000000000    0.50000000000000   -0.00000000000000             6
   -0.41666666666666    0.25000000000000    0.00000000000000             6
    0.25000000000000    0.25000000000000   -0.33333333333334             6
   -0.41666666666666    0.33333333333334   -0.41666666666667             6
    0.25000000000000   -0.41666666666666   -0.00000000000000             6
   -0.33333333333334    0.25000000000000   -0.00000000000000             6
    0.25000000000000    0.25000000000000   -0.41666666666666             6
   -0.33333333333334    0.41666666666666   -0.33333333333333             6
    0.25000000000000   -0.33333333333334    0.00000000000000             6
   -0.25000000000000    0.25000000000000   -0.00000000000000             6
    0.25000000000000    0.25000000000000    0.50000000000000             6
    0.33333333333334    0.33333333333334    0.00000000000000             6
    0.41666666666666    0.33333333333334    0.00000000000000             6
    0.33333333333334    0.33333333333334   -0.08333333333333             6
    0.41666666666666    0.08333333333333    0.41666666666666             6
    0.33333333333334    0.41666666666666   -0.00000000000000             6
    0.50000000000000    0.33333333333334   -0.00000000000000             6
    0.33333333333334    0.33333333333334   -0.16666666666666             6
    0.50000000000000    0.16666666666666    0.50000000000000             6
    0.33333333333334    0.50000000000000    0.00000000000000             6
   -0.41666666666666    0.33333333333334   -0.00000000000000             6
    0.33333333333334    0.33333333333334   -0.25000000000000             6
   -0.41666666666666    0.25000000000000   -0.41666666666666             6
    0.33333333333334   -0.41666666666666    0.00000000000000             6
   -0.33333333333334    0.33333333333334    0.00000000000000             6
    0.33333333333334    0.33333333333334   -0.33333333333333             6
    0.41666666666666    0.41666666666666    0.00000000000000             6
    0.50000000000000    0.41666666666666    0.00000000000000             6
    0.41666666666666    0.41666666666666   -0.08333333333334             6
    0.50000000000000    0.08333333333334    0.50000000000000             6
    0.41666666666666    0.50000000000000   -0.00000000000000             6
   -0.41666666666666    0.41666666666666   -0.00000000000000             6
    0.41666666666666    0.41666666666666   -0.16666666666667             6
    0.50000000000000    0.50000000000000    0.00000000000000             3
    0.25000000000000    0.16666666666666    0.08333333333333             6
    0.16666666666666    0.08333333333333   -0.08333333333334             6
    0.25000000000000    0.08333333333334    0.16666666666667             6
    0.08333333333333    0.16666666666666   -0.08333333333333             6
    0.33333333333334    0.16666666666666    0.08333333333333             6
    0.16666666666666    0.08333333333333   -0.16666666666668             6
    0.33333333333334    0.16666666666667    0.25000000000000             6
    0.08333333333334   -0.25000000000000   -0.08333333333333             6
    0.08333333333333    0.25000000000000   -0.08333333333333             6
    0.16666666666667   -0.08333333333333   -0.16666666666667             6
   -0.25000000000000   -0.16666666666667   -0.33333333333334             6
   -0.33333333333334   -0.08333333333334   -0.16666666666666             6
    0.41666666666666    0.16666666666666    0.08333333333333             6
    0.16666666666666    0.08333333333334   -0.25000000000000             6
    0.41666666666666    0.25000000000000    0.33333333333333             6
    0.08333333333333   -0.33333333333334   -0.08333333333333             6
    0.08333333333334    0.33333333333334   -0.08333333333333             6
    0.25000000000000   -0.08333333333334   -0.16666666666667             6
   -0.33333333333334   -0.25000000000000   -0.41666666666666             6
   -0.41666666666666   -0.08333333333333   -0.16666666666666             6
    0.50000000000000    0.16666666666666    0.08333333333333             6
    0.16666666666666    0.08333333333333   -0.33333333333334             6
    0.50000000000000    0.33333333333334    0.41666666666667             6
    0.08333333333334   -0.41666666666666   -0.08333333333333             6
    0.08333333333333    0.41666666666666   -0.08333333333333             6
    0.33333333333334   -0.08333333333333   -0.16666666666666             6
   -0.41666666666666   -0.33333333333334    0.50000000000000             6
    0.50000000000000   -0.08333333333334   -0.16666666666667             6
   -0.41666666666666    0.16666666666666    0.08333333333334             6
   -0.41666666666666    0.41666666666667    0.50000000000000             6
    0.08333333333334    0.50000000000000   -0.08333333333333             6
    0.41666666666667   -0.08333333333333   -0.16666666666666             6
    0.33333333333334    0.25000000000000    0.08333333333333             6
    0.25000000000000    0.16666666666666   -0.08333333333334             6
    0.33333333333334    0.08333333333334    0.25000000000000             6
    0.16666666666666    0.25000000000000   -0.08333333333333             6
    0.41666666666666    0.25000000000000    0.08333333333334             6
    0.25000000000000    0.16666666666666   -0.16666666666666             6
    0.41666666666666    0.16666666666666    0.33333333333333             6
    0.08333333333334   -0.33333333333333   -0.16666666666666             6
    0.16666666666666    0.33333333333333   -0.08333333333334             6
    0.16666666666666   -0.16666666666666   -0.25000000000000             6
   -0.33333333333333   -0.16666666666666   -0.41666666666666             6
   -0.41666666666666   -0.08333333333334   -0.25000000000000             6
    0.50000000000000    0.25000000000000    0.08333333333333             6
    0.25000000000000    0.16666666666667   -0.25000000000000             6
    0.50000000000000    0.25000000000000    0.41666666666667             6
    0.08333333333333   -0.41666666666667   -0.16666666666667             6
    0.16666666666667    0.41666666666667   -0.08333333333333             6
    0.25000000000000   -0.16666666666667   -0.25000000000000             6
   -0.41666666666667   -0.25000000000000    0.50000000000000             6
    0.50000000000000   -0.08333333333333   -0.25000000000000             6
   -0.41666666666666    0.25000000000000    0.08333333333333             6
    0.25000000000000    0.16666666666666   -0.33333333333334             6
   -0.41666666666666    0.33333333333334    0.50000000000000             6
    0.08333333333334    0.50000000000000   -0.16666666666667             6
    0.16666666666666    0.50000000000000   -0.08333333333333             6
    0.33333333333334   -0.16666666666666   -0.25000000000000             6
    0.50000000000000   -0.33333333333334    0.41666666666666             6
    0.41666666666666   -0.08333333333334   -0.25000000000000             6
   -0.33333333333334    0.25000000000000    0.08333333333334             6
    0.25000000000000    0.16666666666666   -0.41666666666666             6
   -0.33333333333334    0.41666666666666   -0.41666666666667             6
    0.08333333333334    0.41666666666667   -0.16666666666666             6
    0.16666666666666   -0.41666666666667   -0.08333333333334             6
    0.41666666666666   -0.16666666666666   -0.25000000000000             6
    0.41666666666667   -0.41666666666666    0.33333333333334             6
    0.33333333333334   -0.08333333333334   -0.25000000000000             6
   -0.25000000000000    0.25000000000000    0.08333333333333             6
    0.25000000000000    0.16666666666667    0.50000000000000             6
   -0.25000000000000    0.50000000000000   -0.33333333333333             6
    0.08333333333333    0.33333333333333   -0.16666666666667             6
    0.16666666666667   -0.33333333333333   -0.08333333333333             6
    0.50000000000000   -0.16666666666667   -0.25000000000000             6
    0.33333333333333    0.50000000000000    0.25000000000000             6
    0.25000000000000   -0.08333333333333   -0.25000000000000             6
   -0.16666666666666    0.25000000000000    0.08333333333333             6
    0.25000000000000    0.16666666666666    0.41666666666666             6
    0.08333333333334    0.25000000000000   -0.16666666666667             6
   -0.41666666666666   -0.16666666666666   -0.25000000000000             6
    0.41666666666666    0.33333333333334    0.08333333333333             6
    0.33333333333334    0.25000000000000   -0.08333333333333             6
    0.41666666666666    0.08333333333333    0.33333333333333             6
    0.25000000000000    0.33333333333333   -0.08333333333333             6
    0.50000000000000    0.33333333333334    0.08333333333334             6
    0.33333333333334    0.25000000000000   -0.16666666666666             6
    0.50000000000000    0.16666666666666    0.41666666666666             6
    0.08333333333334   -0.41666666666666   -0.25000000000000             6
    0.25000000000000    0.41666666666666   -0.08333333333334             6
    0.16666666666666   -0.25000000000000   -0.33333333333334             6
   -0.41666666666666   -0.16666666666666    0.50000000000000             6
    0.50000000000000   -0.08333333333334   -0.33333333333334             6
   -0.41666666666666    0.33333333333334    0.08333333333333             6
    0.33333333333334    0.25000000000001   -0.25000000000000             6
   -0.41666666666666    0.25000000000000    0.50000000000001             6
    0.08333333333333    0.49999999999999   -0.25000000000001             6
    0.25000000000001    0.50000000000001   -0.08333333333333             6
    0.25000000000000   -0.25000000000001   -0.33333333333334             6
    0.49999999999999   -0.25000000000000    0.41666666666667             6
    0.41666666666666   -0.08333333333333   -0.33333333333333             6
   -0.33333333333334    0.33333333333334    0.08333333333333             6
    0.33333333333334    0.25000000000000   -0.33333333333333             6
   -0.33333333333334    0.33333333333333   -0.41666666666667             6
    0.08333333333334    0.41666666666667   -0.25000000000000             6
    0.25000000000000   -0.41666666666667   -0.08333333333333             6
    0.33333333333333   -0.25000000000000   -0.33333333333334             6
    0.41666666666667   -0.33333333333333    0.33333333333334             6
    0.33333333333334   -0.08333333333334   -0.33333333333333             6
   -0.25000000000000    0.33333333333334    0.08333333333334             6
    0.33333333333334    0.25000000000000   -0.41666666666666             6
    0.08333333333334    0.33333333333334   -0.25000000000000             6
    0.41666666666666   -0.25000000000000   -0.33333333333334             6
    0.50000000000000    0.41666666666666    0.08333333333333             6
    0.41666666666666    0.33333333333333   -0.08333333333334             6
    0.50000000000000    0.08333333333334    0.41666666666667             6
    0.33333333333333    0.41666666666666   -0.08333333333333             6
   -0.41666666666666    0.41666666666666    0.08333333333334             6
    0.41666666666666    0.33333333333333   -0.16666666666667             6
   -0.41666666666666    0.16666666666667    0.50000000000000             6
    0.08333333333334    0.50000000000000   -0.33333333333333             6
    0.33333333333333    0.50000000000000   -0.08333333333334             6
    0.16666666666667   -0.33333333333333   -0.41666666666666             6
    0.50000000000000   -0.16666666666667    0.41666666666667             6
    0.41666666666666   -0.08333333333334   -0.41666666666667             6
   -0.33333333333334    0.41666666666666    0.08333333333333             6
    0.41666666666666    0.33333333333334   -0.25000000000000             6
    0.08333333333333    0.41666666666666   -0.33333333333333             6
    0.25000000000000   -0.33333333333334   -0.41666666666667             6
   -0.41666666666666    0.50000000000000    0.08333333333333             6
    0.50000000000000    0.41666666666666   -0.08333333333334             6
    0.50000000000000    0.33333333333334    0.16666666666667             6
    0.33333333333334    0.16666666666667   -0.16666666666666             6
    0.50000000000000    0.16666666666666    0.33333333333333             6
    0.16666666666667    0.33333333333334   -0.16666666666667             6
   -0.41666666666666    0.33333333333334    0.16666666666667             6
    0.33333333333334    0.16666666666666   -0.25000000000000             6
   -0.41666666666666    0.25000000000000    0.41666666666667             6
    0.16666666666667   -0.41666666666666   -0.16666666666667             6
    0.16666666666666    0.41666666666666   -0.16666666666667             6
    0.25000000000000   -0.16666666666666   -0.33333333333333             6
   -0.41666666666666   -0.25000000000000    0.41666666666666             6
    0.41666666666666   -0.16666666666667   -0.33333333333334             6
   -0.33333333333334    0.33333333333334    0.16666666666667             6
   -0.33333333333334    0.33333333333333    0.50000000000000             6
    0.16666666666666    0.50000000000000   -0.16666666666667             6
    0.33333333333333   -0.16666666666667   -0.33333333333333             6
   -0.41666666666666    0.41666666666666    0.16666666666667             6
    0.41666666666666    0.25000000000000   -0.16666666666667             6
   -0.41666666666666    0.16666666666667    0.41666666666667             6
    0.25000000000000    0.41666666666667   -0.16666666666667             6
   -0.33333333333334    0.41666666666666    0.16666666666667             6
    0.41666666666666    0.24999999999999   -0.25000000000000             6
   -0.33333333333334    0.25000000000000    0.49999999999999             6
    0.16666666666667    0.50000000000001   -0.24999999999999             6
    0.24999999999999    0.49999999999999   -0.16666666666667             6
    0.25000000000000   -0.24999999999999   -0.41666666666666             6
    0.50000000000001   -0.25000000000000    0.33333333333333             6
    0.33333333333334   -0.16666666666667   -0.41666666666667             6
   -0.25000000000000    0.41666666666666    0.16666666666666             6
    0.41666666666666    0.25000000000000   -0.33333333333334             6
    0.16666666666666    0.41666666666666   -0.25000000000000             6
    0.33333333333334   -0.25000000000000   -0.41666666666666             6
   -0.33333333333334    0.50000000000000    0.16666666666667             6
    0.50000000000000    0.33333333333334   -0.16666666666666             6
   -0.25000000000000    0.50000000000000    0.25000000000000             6
