 vasp.6.1.1 19Jun20 (build Jul 17 2020 22:06:34) complex                        
  
 executed on             LinuxIFC date 2020.12.07  19:28:43
 running on    4 total cores
 distrk:  each k-point on    4 cores,    1 groups
 distr:  one band on NCORE=   1 cores,    4 groups


--------------------------------------------------------------------------------------------------------


 INCAR:
 POTCAR:    PAW_PBE Ce 23Dec2003                  
 -----------------------------------------------------------------------------
|                                                                             |
|           W    W    AA    RRRRR   N    N  II  N    N   GGGG   !!!           |
|           W    W   A  A   R    R  NN   N  II  NN   N  G    G  !!!           |
|           W    W  A    A  R    R  N N  N  II  N N  N  G       !!!           |
|           W WW W  AAAAAA  RRRRR   N  N N  II  N  N N  G  GGG   !            |
|           WW  WW  A    A  R   R   N   NN  II  N   NN  G    G                |
|           W    W  A    A  R    R  N    N  II  N    N   GGGG   !!!           |
|                                                                             |
|     You use a magnetic or noncollinear calculation, but did not specify     |
|     the initial magnetic moment with the MAGMOM tag. Note that a            |
|     default of 1 will be used for all atoms. This ferromagnetic setup       |
|     may break the symmetry of the crystal, in particular it may rule        |
|     out finding an antiferromagnetic solution. Thence, we recommend         |
|     setting the initial magnetic moment manually or verifying carefully     |
|     that this magnetic setup is desired.                                    |
|                                                                             |
 -----------------------------------------------------------------------------

 POTCAR:    PAW_PBE Ce 23Dec2003                  
   SHA256 =  00bd3101dba980d69718c826e9aff48526de61f93249f80fb0d1cde9afca69b7 Ce/POTCAR             
   COPYR  = (c) Copyright 23Dec2003 Georg Kresse                                                    
   COPYR  = This file is part of the software VASP. Any use, copying, and all other rights are regul
   COPYR  = If you do not have a valid VASP license, you may not use, copy or distribute this file. 
   VRHFIN =Ce : [core= Kr 4d10]                                                                     
   LEXCH  = PE                                                                                      
   EATOM  =  1063.0861 eV,   78.1346 Ry                                                             
                                                                                                    
   TITEL  = PAW_PBE Ce 23Dec2003                                                                    
   LULTRA =        F    use ultrasoft PP ?                                                          
   IUNSCR =        1    unscreen: 0-lin 1-nonlin 2-no                                               
   RPACOR =    1.800    partial core radius                                                         
   POMASS =  140.115; ZVAL   =   12.000    mass and valenz                                          
   RCORE  =    2.700    outmost cutoff radius                                                       
   RWIGS  =    2.500; RWIGS  =    1.323    wigner-seitz radius (au A)                               
   ENMAX  =  273.042; ENMIN  =  204.781 eV                                                          
   RCLOC  =    1.810    cutoff for local pot                                                        
   LCOR   =        T    correct aug charges                                                         
   LPAW   =        T    paw PP                                                                      
   EAUG   =  580.196                                                                                
   DEXC   =    0.000                                                                                
   RMAX   =    2.749    core radius for proj-oper                                                   
   RAUG   =    1.300    factor for augmentation sphere                                              
   RDEP   =    2.810    radius for radial grids                                                     
   RDEPT  =    2.162    core radius for aug-charge                                                  
                                                                                                    
   Atomic configuration                                                                             
   14 entries                                                                                       
     n  l   j            E        occ.                                                              
     1  0  0.50    -40258.9816   2.0000                                                             
     2  0  0.50     -6445.4884   2.0000                                                             
     2  1  1.50     -5771.7470   6.0000                                                             
     3  0  0.50     -1387.9739   2.0000                                                             
     3  1  1.50     -1173.8158   6.0000                                                             
     3  2  2.50      -869.9108  10.0000                                                             
     4  0  0.50      -280.8706   2.0000                                                             
     4  1  1.50      -210.9815   6.0000                                                             
     4  2  2.50      -110.4558  10.0000                                                             
     5  0  0.50       -40.5819   2.0000                                                             
     6  0  0.50        -3.7444   2.0000                                                             
     5  1  1.50       -23.2188   6.0000                                                             
     5  2  2.50        -3.0598   1.0000                                                             
     4  3  2.50        -5.3970   1.0000                                                             
   Description                                                                                      
     l       E           TYP  RCUT    TYP  RCUT                                                     
     0    -40.5819164     23  1.500                                                                 
     0     -3.7443793     23  2.300                                                                 
     1    -23.2188445     23  2.000                                                                 
     1     40.8174780     23  2.300                                                                 
     2     -3.0597556     23  2.500                                                                 
     2     13.6058260     23  2.500                                                                 
     3     -5.3970469     23  2.700                                                                 
     3     -5.8505052     23  2.700                                                                 
  local pseudopotential read in
  partial core-charges read in
  partial kinetic energy density read in
  atomic valenz-charges read in
  non local Contribution for L=           0  read in
    real space projection operators read in
  non local Contribution for L=           0  read in
    real space projection operators read in
  non local Contribution for L=           1  read in
    real space projection operators read in
  non local Contribution for L=           1  read in
    real space projection operators read in
  non local Contribution for L=           2  read in
    real space projection operators read in
  non local Contribution for L=           2  read in
    real space projection operators read in
  non local Contribution for L=           3  read in
    real space projection operators read in
  non local Contribution for L=           3  read in
    real space projection operators read in
    PAW grid and wavefunctions read in
 
   number of l-projection  operators is LMAX  =           8
   number of lm-projection operators is LMMAX =          32
 
  PAW_PBE Ce 23Dec2003                  :
 energy of atom  1       EATOM=-1063.0861
 kinetic energy error for atom=    0.0809 (will be added to EATOM!!)
 
 
 POSCAR: Ce
  positions in direct lattice
  No initial velocities read in
 exchange correlation table for  LEXCH =        8
   RHO(1)=    0.500       N(1)  =     2000
   RHO(2)=  100.500       N(2)  =     4000
 


--------------------------------------------------------------------------------------------------------


 ion  position               nearest neighbor table
   1  0.000  0.000  0.000-
 
  LATTYP: Found a face centered cubic cell.
 ALAT       =     4.7200000000
  
  Lattice vectors:
  
 A1 = (   0.0000000000,   2.3600000000,   2.3600000000)
 A2 = (   2.3600000000,   0.0000000000,   2.3600000000)
 A3 = (   2.3600000000,   2.3600000000,   0.0000000000)


Analysis of symmetry for initial positions (statically):
=====================================================================
 Subroutine PRICEL returns:
 Original cell was already a primitive cell.
 

 Routine SETGRP: Setting up the symmetry group for a 
 face centered cubic supercell.


 Subroutine GETGRP returns: Found 48 space group operations
 (whereof 48 operations were pure point group operations)
 out of a pool of 48 trial point group operations.


The static configuration has the point symmetry O_h .


Analysis of symmetry for dynamics (positions and initial velocities):
=====================================================================
 Subroutine PRICEL returns:
 Original cell was already a primitive cell.
 

 Routine SETGRP: Setting up the symmetry group for a 
 face centered cubic supercell.


 Subroutine GETGRP returns: Found 48 space group operations
 (whereof 48 operations were pure point group operations)
 out of a pool of 48 trial point group operations.


The dynamic configuration has the point symmetry O_h .


Analysis of structural, dynamic, and magnetic symmetry:
=====================================================================
 Subroutine PRICEL returns:
 Original cell was already a primitive cell.
 

 Routine SETGRP: Setting up the symmetry group for a 
 face centered cubic supercell.


 Subroutine GETGRP returns: Found  6 space group operations
 (whereof  6 operations were pure point group operations)
 out of a pool of 48 trial point group operations.


The (compounded) configuration has the point symmetry S_6 .


 Subroutine INISYM returns: Found  6 space group operations
 (whereof  6 operations are pure point group operations),
 and found     1 'primitive' translations


----------------------------------------------------------------------------------------

                                     Primitive cell                                     

  volume of cell :      26.2885

  direct lattice vectors                    reciprocal lattice vectors
     0.000000000  2.360000000  2.360000000    -0.211864407  0.211864407  0.211864407
     2.360000000  0.000000000  2.360000000     0.211864407 -0.211864407  0.211864407
     2.360000000  2.360000000  0.000000000     0.211864407  0.211864407 -0.211864407

  length of vectors
     3.337544007  3.337544007  3.337544007     0.366959917  0.366959917  0.366959917

  position of ions in fractional coordinates (direct lattice)
     0.000000000  0.000000000  0.000000000

  ion indices of the primitive-cell ions
   primitive index   ion index
                 1           1

----------------------------------------------------------------------------------------

 
 

Automatic generation of k-mesh.
 generate k-points for:   12   12   12
 -----------------------------------------------------------------------------
|                                                                             |
|           W    W    AA    RRRRR   N    N  II  N    N   GGGG   !!!           |
|           W    W   A  A   R    R  NN   N  II  NN   N  G    G  !!!           |
|           W    W  A    A  R    R  N N  N  II  N N  N  G       !!!           |
|           W WW W  AAAAAA  RRRRR   N  N N  II  N  N N  G  GGG   !            |
|           WW  WW  A    A  R   R   N   NN  II  N   NN  G    G                |
|           W    W  A    A  R    R  N    N  II  N    N   GGGG   !!!           |
|                                                                             |
|     Full k-point grid generated. Inversion symmetry is not applied.         |
|                                                                             |
 -----------------------------------------------------------------------------

Space group operators:
 irot       det(A)        alpha          n_x          n_y          n_z        tau_x        tau_y        tau_z
    1     1.000000     0.000000     1.000000     0.000000     0.000000     0.000000     0.000000     0.000000
    2    -1.000000     0.000000     1.000000     0.000000     0.000000     0.000000     0.000000     0.000000
    3     1.000000   120.000000    -0.577350    -0.577350    -0.577350     0.000000     0.000000     0.000000
    4    -1.000000   120.000000    -0.577350    -0.577350    -0.577350     0.000000     0.000000     0.000000
    5     1.000000   120.000000     0.577350     0.577350     0.577350     0.000000     0.000000     0.000000
    6    -1.000000   120.000000     0.577350     0.577350     0.577350     0.000000     0.000000     0.000000
 
 Subroutine IBZKPT returns following result:
 ===========================================
 
 Found    294 irreducible k-points:
 
 Following reciprocal coordinates:
            Coordinates               Weight
  0.000000  0.000000  0.000000      1.000000
  0.083333 -0.000000  0.000000      6.000000
  0.083333  0.083333  0.083333      2.000000
  0.166667  0.000000 -0.000000      6.000000
  0.166667  0.166667  0.166667      2.000000
  0.250000  0.000000  0.000000      6.000000
  0.250000  0.250000  0.250000      2.000000
  0.333333 -0.000000  0.000000      6.000000
  0.333333  0.333333  0.333333      2.000000
  0.416667 -0.000000 -0.000000      6.000000
  0.416667  0.416667  0.416667      2.000000
  0.500000  0.000000  0.000000      3.000000
  0.500000  0.500000  0.500000      1.000000
  0.083333  0.083333  0.000000      6.000000
  0.166667  0.083333  0.000000      6.000000
  0.083333  0.083333 -0.083333      6.000000
  0.166667  0.083333  0.166667      6.000000
  0.083333  0.166667 -0.000000      6.000000
  0.250000  0.083333 -0.000000      6.000000
  0.083333  0.083333 -0.166667      6.000000
  0.250000  0.166667  0.250000      6.000000
  0.083333  0.250000  0.000000      6.000000
  0.333333  0.083333  0.000000      6.000000
  0.083333  0.083333 -0.250000      6.000000
  0.333333  0.250000  0.333333      6.000000
  0.083333  0.333333 -0.000000      6.000000
  0.416667  0.083333  0.000000      6.000000
  0.083333  0.083333 -0.333333      6.000000
  0.416667  0.333333  0.416667      6.000000
  0.083333  0.416667 -0.000000      6.000000
  0.500000  0.083333 -0.000000      6.000000
  0.083333  0.083333 -0.416667      6.000000
  0.500000  0.416667  0.500000      6.000000
  0.083333  0.500000  0.000000      6.000000
 -0.416667  0.083333 -0.000000      6.000000
  0.083333  0.083333  0.500000      6.000000
 -0.416667  0.500000 -0.416667      6.000000
  0.083333 -0.416667  0.000000      6.000000
 -0.333333  0.083333  0.000000      6.000000
  0.083333  0.083333  0.416667      6.000000
 -0.333333 -0.416667 -0.333333      6.000000
  0.083333 -0.333333 -0.000000      6.000000
 -0.250000  0.083333 -0.000000      6.000000
  0.083333  0.083333  0.333333      6.000000
 -0.250000 -0.333333 -0.250000      6.000000
  0.083333 -0.250000  0.000000      6.000000
 -0.166667  0.083333 -0.000000      6.000000
  0.083333  0.083333  0.250000      6.000000
 -0.166667 -0.250000 -0.166667      6.000000
  0.083333 -0.166667  0.000000      6.000000
 -0.083333  0.083333  0.000000      6.000000
  0.083333  0.083333  0.166667      6.000000
  0.166667  0.166667  0.000000      6.000000
  0.250000  0.166667  0.000000      6.000000
  0.166667  0.166667 -0.083333      6.000000
  0.250000  0.083333  0.250000      6.000000
  0.166667  0.250000 -0.000000      6.000000
  0.333333  0.166667 -0.000000      6.000000
  0.166667  0.166667 -0.166667      6.000000
  0.333333  0.166667  0.333333      6.000000
  0.166667  0.333333  0.000000      6.000000
  0.416667  0.166667  0.000000      6.000000
  0.166667  0.166667 -0.250000      6.000000
  0.416667  0.250000  0.416667      6.000000
  0.166667  0.416667 -0.000000      6.000000
  0.500000  0.166667  0.000000      6.000000
  0.166667  0.166667 -0.333333      6.000000
  0.500000  0.333333  0.500000      6.000000
  0.166667  0.500000 -0.000000      6.000000
 -0.416667  0.166667 -0.000000      6.000000
  0.166667  0.166667 -0.416667      6.000000
 -0.416667  0.416667 -0.416667      6.000000
  0.166667 -0.416667  0.000000      6.000000
 -0.333333  0.166667 -0.000000      6.000000
  0.166667  0.166667  0.500000      6.000000
 -0.333333  0.500000 -0.333333      6.000000
  0.166667 -0.333333  0.000000      6.000000
 -0.250000  0.166667  0.000000      6.000000
  0.166667  0.166667  0.416667      6.000000
 -0.250000 -0.416667 -0.250000      6.000000
  0.166667 -0.250000 -0.000000      6.000000
 -0.166667  0.166667 -0.000000      6.000000
  0.166667  0.166667  0.333333      6.000000
  0.250000  0.250000  0.000000      6.000000
  0.333333  0.250000  0.000000      6.000000
  0.250000  0.250000 -0.083333      6.000000
  0.333333  0.083333  0.333333      6.000000
  0.250000  0.333333 -0.000000      6.000000
  0.416667  0.250000 -0.000000      6.000000
  0.250000  0.250000 -0.166667      6.000000
  0.416667  0.166667  0.416667      6.000000
  0.250000  0.416667  0.000000      6.000000
  0.500000  0.250000  0.000000      6.000000
  0.250000  0.250000 -0.250000      6.000000
  0.500000  0.250000  0.500000      6.000000
  0.250000  0.500000 -0.000000      6.000000
 -0.416667  0.250000  0.000000      6.000000
  0.250000  0.250000 -0.333333      6.000000
 -0.416667  0.333333 -0.416667      6.000000
  0.250000 -0.416667 -0.000000      6.000000
 -0.333333  0.250000 -0.000000      6.000000
  0.250000  0.250000 -0.416667      6.000000
 -0.333333  0.416667 -0.333333      6.000000
  0.250000 -0.333333  0.000000      6.000000
 -0.250000  0.250000 -0.000000      6.000000
  0.250000  0.250000  0.500000      6.000000
  0.333333  0.333333  0.000000      6.000000
  0.416667  0.333333  0.000000      6.000000
  0.333333  0.333333 -0.083333      6.000000
  0.416667  0.083333  0.416667      6.000000
  0.333333  0.416667 -0.000000      6.000000
  0.500000  0.333333 -0.000000      6.000000
  0.333333  0.333333 -0.166667      6.000000
  0.500000  0.166667  0.500000      6.000000
  0.333333  0.500000  0.000000      6.000000
 -0.416667  0.333333 -0.000000      6.000000
  0.333333  0.333333 -0.250000      6.000000
 -0.416667  0.250000 -0.416667      6.000000
  0.333333 -0.416667  0.000000      6.000000
 -0.333333  0.333333  0.000000      6.000000
  0.333333  0.333333 -0.333333      6.000000
  0.416667  0.416667  0.000000      6.000000
  0.500000  0.416667  0.000000      6.000000
  0.416667  0.416667 -0.083333      6.000000
  0.500000  0.083333  0.500000      6.000000
  0.416667  0.500000 -0.000000      6.000000
 -0.416667  0.416667 -0.000000      6.000000
  0.416667  0.416667 -0.166667      6.000000
  0.500000  0.500000  0.000000      3.000000
  0.250000  0.166667  0.083333      6.000000
  0.166667  0.083333 -0.083333      6.000000
  0.250000  0.083333  0.166667      6.000000
  0.083333  0.166667 -0.083333      6.000000
  0.333333  0.166667  0.083333      6.000000
  0.166667  0.083333 -0.166667      6.000000
  0.333333  0.166667  0.250000      6.000000
  0.083333 -0.250000 -0.083333      6.000000
  0.083333  0.250000 -0.083333      6.000000
  0.166667 -0.083333 -0.166667      6.000000
 -0.250000 -0.166667 -0.333333      6.000000
 -0.333333 -0.083333 -0.166667      6.000000
  0.416667  0.166667  0.083333      6.000000
  0.166667  0.083333 -0.250000      6.000000
  0.416667  0.250000  0.333333      6.000000
  0.083333 -0.333333 -0.083333      6.000000
  0.083333  0.333333 -0.083333      6.000000
  0.250000 -0.083333 -0.166667      6.000000
 -0.333333 -0.250000 -0.416667      6.000000
 -0.416667 -0.083333 -0.166667      6.000000
  0.500000  0.166667  0.083333      6.000000
  0.166667  0.083333 -0.333333      6.000000
  0.500000  0.333333  0.416667      6.000000
  0.083333 -0.416667 -0.083333      6.000000
  0.083333  0.416667 -0.083333      6.000000
  0.333333 -0.083333 -0.166667      6.000000
 -0.416667 -0.333333  0.500000      6.000000
  0.500000 -0.083333 -0.166667      6.000000
 -0.416667  0.166667  0.083333      6.000000
 -0.416667  0.416667  0.500000      6.000000
  0.083333  0.500000 -0.083333      6.000000
  0.416667 -0.083333 -0.166667      6.000000
  0.333333  0.250000  0.083333      6.000000
  0.250000  0.166667 -0.083333      6.000000
  0.333333  0.083333  0.250000      6.000000
  0.166667  0.250000 -0.083333      6.000000
  0.416667  0.250000  0.083333      6.000000
  0.250000  0.166667 -0.166667      6.000000
  0.416667  0.166667  0.333333      6.000000
  0.083333 -0.333333 -0.166667      6.000000
  0.166667  0.333333 -0.083333      6.000000
  0.166667 -0.166667 -0.250000      6.000000
 -0.333333 -0.166667 -0.416667      6.000000
 -0.416667 -0.083333 -0.250000      6.000000
  0.500000  0.250000  0.083333      6.000000
  0.250000  0.166667 -0.250000      6.000000
  0.500000  0.250000  0.416667      6.000000
  0.083333 -0.416667 -0.166667      6.000000
  0.166667  0.416667 -0.083333      6.000000
  0.250000 -0.166667 -0.250000      6.000000
 -0.416667 -0.250000  0.500000      6.000000
  0.500000 -0.083333 -0.250000      6.000000
 -0.416667  0.250000  0.083333      6.000000
  0.250000  0.166667 -0.333333      6.000000
 -0.416667  0.333333  0.500000      6.000000
  0.083333  0.500000 -0.166667      6.000000
  0.166667  0.500000 -0.083333      6.000000
  0.333333 -0.166667 -0.250000      6.000000
  0.500000 -0.333333  0.416667      6.000000
  0.416667 -0.083333 -0.250000      6.000000
 -0.333333  0.250000  0.083333      6.000000
  0.250000  0.166667 -0.416667      6.000000
 -0.333333  0.416667 -0.416667      6.000000
  0.083333  0.416667 -0.166667      6.000000
  0.166667 -0.416667 -0.083333      6.000000
  0.416667 -0.166667 -0.250000      6.000000
  0.416667 -0.416667  0.333333      6.000000
  0.333333 -0.083333 -0.250000      6.000000
 -0.250000  0.250000  0.083333      6.000000
  0.250000  0.166667  0.500000      6.000000
 -0.250000  0.500000 -0.333333      6.000000
  0.083333  0.333333 -0.166667      6.000000
  0.166667 -0.333333 -0.083333      6.000000
  0.500000 -0.166667 -0.250000      6.000000
  0.333333  0.500000  0.250000      6.000000
  0.250000 -0.083333 -0.250000      6.000000
 -0.166667  0.250000  0.083333      6.000000
  0.250000  0.166667  0.416667      6.000000
  0.083333  0.250000 -0.166667      6.000000
 -0.416667 -0.166667 -0.250000      6.000000
  0.416667  0.333333  0.083333      6.000000
  0.333333  0.250000 -0.083333      6.000000
  0.416667  0.083333  0.333333      6.000000
  0.250000  0.333333 -0.083333      6.000000
  0.500000  0.333333  0.083333      6.000000
  0.333333  0.250000 -0.166667      6.000000
  0.500000  0.166667  0.416667      6.000000
  0.083333 -0.416667 -0.250000      6.000000
  0.250000  0.416667 -0.083333      6.000000
  0.166667 -0.250000 -0.333333      6.000000
 -0.416667 -0.166667  0.500000      6.000000
  0.500000 -0.083333 -0.333333      6.000000
 -0.416667  0.333333  0.083333      6.000000
  0.333333  0.250000 -0.250000      6.000000
 -0.416667  0.250000  0.500000      6.000000
  0.083333  0.500000 -0.250000      6.000000
  0.250000  0.500000 -0.083333      6.000000
  0.250000 -0.250000 -0.333333      6.000000
  0.500000 -0.250000  0.416667      6.000000
  0.416667 -0.083333 -0.333333      6.000000
 -0.333333  0.333333  0.083333      6.000000
  0.333333  0.250000 -0.333333      6.000000
 -0.333333  0.333333 -0.416667      6.000000
  0.083333  0.416667 -0.250000      6.000000
  0.250000 -0.416667 -0.083333      6.000000
  0.333333 -0.250000 -0.333333      6.000000
  0.416667 -0.333333  0.333333      6.000000
  0.333333 -0.083333 -0.333333      6.000000
 -0.250000  0.333333  0.083333      6.000000
  0.333333  0.250000 -0.416667      6.000000
  0.083333  0.333333 -0.250000      6.000000
  0.416667 -0.250000 -0.333333      6.000000
  0.500000  0.416667  0.083333      6.000000
  0.416667  0.333333 -0.083333      6.000000
  0.500000  0.083333  0.416667      6.000000
  0.333333  0.416667 -0.083333      6.000000
 -0.416667  0.416667  0.083333      6.000000
  0.416667  0.333333 -0.166667      6.000000
 -0.416667  0.166667  0.500000      6.000000
  0.083333  0.500000 -0.333333      6.000000
  0.333333  0.500000 -0.083333      6.000000
  0.166667 -0.333333 -0.416667      6.000000
  0.500000 -0.166667  0.416667      6.000000
  0.416667 -0.083333 -0.416667      6.000000
 -0.333333  0.416667  0.083333      6.000000
  0.416667  0.333333 -0.250000      6.000000
  0.083333  0.416667 -0.333333      6.000000
  0.250000 -0.333333 -0.416667      6.000000
 -0.416667  0.500000  0.083333      6.000000
  0.500000  0.416667 -0.083333      6.000000
  0.500000  0.333333  0.166667      6.000000
  0.333333  0.166667 -0.166667      6.000000
  0.500000  0.166667  0.333333      6.000000
  0.166667  0.333333 -0.166667      6.000000
 -0.416667  0.333333  0.166667      6.000000
  0.333333  0.166667 -0.250000      6.000000
 -0.416667  0.250000  0.416667      6.000000
  0.166667 -0.416667 -0.166667      6.000000
  0.166667  0.416667 -0.166667      6.000000
  0.250000 -0.166667 -0.333333      6.000000
 -0.416667 -0.250000  0.416667      6.000000
  0.416667 -0.166667 -0.333333      6.000000
 -0.333333  0.333333  0.166667      6.000000
 -0.333333  0.333333  0.500000      6.000000
  0.166667  0.500000 -0.166667      6.000000
  0.333333 -0.166667 -0.333333      6.000000
 -0.416667  0.416667  0.166667      6.000000
  0.416667  0.250000 -0.166667      6.000000
 -0.416667  0.166667  0.416667      6.000000
  0.250000  0.416667 -0.166667      6.000000
 -0.333333  0.416667  0.166667      6.000000
  0.416667  0.250000 -0.250000      6.000000
 -0.333333  0.250000  0.500000      6.000000
  0.166667  0.500000 -0.250000      6.000000
  0.250000  0.500000 -0.166667      6.000000
  0.250000 -0.250000 -0.416667      6.000000
  0.500000 -0.250000  0.333333      6.000000
  0.333333 -0.166667 -0.416667      6.000000
 -0.250000  0.416667  0.166667      6.000000
  0.416667  0.250000 -0.333333      6.000000
  0.166667  0.416667 -0.250000      6.000000
  0.333333 -0.250000 -0.416667      6.000000
 -0.333333  0.500000  0.166667      6.000000
  0.500000  0.333333 -0.166667      6.000000
 -0.250000  0.500000  0.250000      6.000000
 
 Following cartesian coordinates:
            Coordinates               Weight
  0.000000  0.000000  0.000000      1.000000
 -0.083333  0.083333  0.083333      6.000000
  0.083333  0.083333  0.083333      2.000000
 -0.166667  0.166667  0.166667      6.000000
  0.166667  0.166667  0.166667      2.000000
 -0.250000  0.250000  0.250000      6.000000
  0.250000  0.250000  0.250000      2.000000
 -0.333333  0.333333  0.333333      6.000000
  0.333333  0.333333  0.333333      2.000000
 -0.416667  0.416667  0.416667      6.000000
  0.416667  0.416667  0.416667      2.000000
 -0.500000  0.500000  0.500000      3.000000
  0.500000  0.500000  0.500000      1.000000
 -0.000000  0.000000  0.166667      6.000000
 -0.083333  0.083333  0.250000      6.000000
 -0.083333 -0.083333  0.250000      6.000000
  0.083333  0.250000  0.083333      6.000000
  0.083333 -0.083333  0.250000      6.000000
 -0.166667  0.166667  0.333333      6.000000
 -0.166667 -0.166667  0.333333      6.000000
  0.166667  0.333333  0.166667      6.000000
  0.166667 -0.166667  0.333333      6.000000
 -0.250000  0.250000  0.416667      6.000000
 -0.250000 -0.250000  0.416667      6.000000
  0.250000  0.416667  0.250000      6.000000
  0.250000 -0.250000  0.416667      6.000000
 -0.333333  0.333333  0.500000      6.000000
 -0.333333 -0.333333  0.500000      6.000000
  0.333333  0.500000  0.333333      6.000000
  0.333333 -0.333333  0.500000      6.000000
 -0.416667  0.416667  0.583333      6.000000
 -0.416667 -0.416667  0.583333      6.000000
  0.416667  0.583333  0.416667      6.000000
  0.416667 -0.416667  0.583333      6.000000
  0.500000 -0.500000 -0.333333      6.000000
  0.500000  0.500000 -0.333333      6.000000
  0.500000 -1.333333  0.500000      6.000000
 -0.500000  0.500000 -0.333333      6.000000
  0.416667 -0.416667 -0.250000      6.000000
  0.416667  0.416667 -0.250000      6.000000
 -0.416667 -0.250000 -0.416667      6.000000
 -0.416667  0.416667 -0.250000      6.000000
  0.333333 -0.333333 -0.166667      6.000000
  0.333333  0.333333 -0.166667      6.000000
 -0.333333 -0.166667 -0.333333      6.000000
 -0.333333  0.333333 -0.166667      6.000000
  0.250000 -0.250000 -0.083333      6.000000
  0.250000  0.250000 -0.083333      6.000000
 -0.250000 -0.083333 -0.250000      6.000000
 -0.250000  0.250000 -0.083333      6.000000
  0.166667 -0.166667 -0.000000      6.000000
  0.166667  0.166667 -0.000000      6.000000
 -0.000000  0.000000  0.333333      6.000000
 -0.083333  0.083333  0.416667      6.000000
 -0.083333 -0.083333  0.416667      6.000000
  0.083333  0.416667  0.083333      6.000000
  0.083333 -0.083333  0.416667      6.000000
 -0.166667  0.166667  0.500000      6.000000
 -0.166667 -0.166667  0.500000      6.000000
  0.166667  0.500000  0.166667      6.000000
  0.166667 -0.166667  0.500000      6.000000
 -0.250000  0.250000  0.583333      6.000000
 -0.250000 -0.250000  0.583333      6.000000
  0.250000  0.583333  0.250000      6.000000
  0.250000 -0.250000  0.583333      6.000000
 -0.333333  0.333333  0.666667      6.000000
 -0.333333 -0.333333  0.666667      6.000000
  0.333333  0.666667  0.333333      6.000000
  0.333333 -0.333333  0.666667      6.000000
  0.583333 -0.583333 -0.250000      6.000000
 -0.416667 -0.416667  0.750000      6.000000
  0.416667 -1.250000  0.416667      6.000000
 -0.583333  0.583333 -0.250000      6.000000
  0.500000 -0.500000 -0.166667      6.000000
  0.500000  0.500000 -0.166667      6.000000
  0.500000 -1.166667  0.500000      6.000000
 -0.500000  0.500000 -0.166667      6.000000
  0.416667 -0.416667 -0.083333      6.000000
  0.416667  0.416667 -0.083333      6.000000
 -0.416667 -0.083333 -0.416667      6.000000
 -0.416667  0.416667 -0.083333      6.000000
  0.333333 -0.333333  0.000000      6.000000
  0.333333  0.333333  0.000000      6.000000
  0.000000  0.000000  0.500000      6.000000
 -0.083333  0.083333  0.583333      6.000000
 -0.083333 -0.083333  0.583333      6.000000
  0.083333  0.583333  0.083333      6.000000
  0.083333 -0.083333  0.583333      6.000000
 -0.166667  0.166667  0.666667      6.000000
 -0.166667 -0.166667  0.666667      6.000000
  0.166667  0.666667  0.166667      6.000000
  0.166667 -0.166667  0.666667      6.000000
 -0.250000  0.250000  0.750000      6.000000
 -0.250000 -0.250000  0.750000      6.000000
  0.250000  0.750000  0.250000      6.000000
  0.250000 -0.250000  0.750000      6.000000
  0.666667 -0.666667 -0.166667      6.000000
 -0.333333 -0.333333  0.833333      6.000000
  0.333333 -1.166667  0.333333      6.000000
 -0.666667  0.666667 -0.166667      6.000000
  0.583333 -0.583333 -0.083333      6.000000
 -0.416667 -0.416667  0.916667      6.000000
  0.416667 -1.083333  0.416667      6.000000
 -0.583333  0.583333 -0.083333      6.000000
  0.500000 -0.500000 -0.000000      6.000000
  0.500000  0.500000 -0.000000      6.000000
  0.000000  0.000000  0.666667      6.000000
 -0.083333  0.083333  0.750000      6.000000
 -0.083333 -0.083333  0.750000      6.000000
  0.083333  0.750000  0.083333      6.000000
  0.083333 -0.083333  0.750000      6.000000
 -0.166667  0.166667  0.833333      6.000000
 -0.166667 -0.166667  0.833333      6.000000
  0.166667  0.833333  0.166667      6.000000
  0.166667 -0.166667  0.833333      6.000000
  0.750000 -0.750000 -0.083333      6.000000
 -0.250000 -0.250000  0.916667      6.000000
  0.250000 -1.083333  0.250000      6.000000
 -0.750000  0.750000 -0.083333      6.000000
  0.666667 -0.666667 -0.000000      6.000000
 -0.333333 -0.333333  1.000000      6.000000
  0.000000  0.000000  0.833333      6.000000
 -0.083333  0.083333  0.916667      6.000000
 -0.083333 -0.083333  0.916667      6.000000
  0.083333  0.916667  0.083333      6.000000
  0.083333 -0.083333  0.916667      6.000000
  0.833333 -0.833333  0.000000      6.000000
 -0.166667 -0.166667  1.000000      6.000000
  0.000000  0.000000  1.000000      3.000000
 -0.000000  0.166667  0.333333      6.000000
 -0.166667 -0.000000  0.333333      6.000000
  0.000000  0.333333  0.166667      6.000000
  0.000000 -0.166667  0.333333      6.000000
 -0.083333  0.250000  0.416667      6.000000
 -0.250000 -0.083333  0.416667      6.000000
  0.083333  0.416667  0.250000      6.000000
 -0.416667  0.250000 -0.083333      6.000000
  0.083333 -0.250000  0.416667      6.000000
 -0.416667  0.083333  0.250000      6.000000
 -0.250000 -0.416667 -0.083333      6.000000
  0.083333 -0.416667 -0.250000      6.000000
 -0.166667  0.333333  0.500000      6.000000
 -0.333333 -0.166667  0.500000      6.000000
  0.166667  0.500000  0.333333      6.000000
 -0.500000  0.333333 -0.166667      6.000000
  0.166667 -0.333333  0.500000      6.000000
 -0.500000  0.166667  0.333333      6.000000
 -0.333333 -0.500000 -0.166667      6.000000
  0.166667 -0.500000 -0.333333      6.000000
 -0.250000  0.416667  0.583333      6.000000
 -0.416667 -0.250000  0.583333      6.000000
  0.250000  0.583333  0.416667      6.000000
 -0.583333  0.416667 -0.250000      6.000000
  0.250000 -0.416667  0.583333      6.000000
 -0.583333  0.250000  0.416667      6.000000
  0.583333  0.416667 -1.250000      6.000000
 -0.750000  0.416667  0.583333      6.000000
  0.666667 -0.500000 -0.333333      6.000000
  1.333333 -0.333333 -0.500000      6.000000
  0.333333 -0.500000  0.666667      6.000000
 -0.666667  0.333333  0.500000      6.000000
 -0.000000  0.166667  0.500000      6.000000
 -0.166667 -0.000000  0.500000      6.000000
  0.000000  0.500000  0.166667      6.000000
  0.000000 -0.166667  0.500000      6.000000
 -0.083333  0.250000  0.583333      6.000000
 -0.250000 -0.083333  0.583333      6.000000
  0.083333  0.583333  0.250000      6.000000
 -0.583333  0.250000 -0.083333      6.000000
  0.083333 -0.250000  0.583333      6.000000
 -0.583333  0.083333  0.250000      6.000000
 -0.250000 -0.583333 -0.083333      6.000000
  0.083333 -0.583333 -0.250000      6.000000
 -0.166667  0.333333  0.666667      6.000000
 -0.333333 -0.166667  0.666667      6.000000
  0.166667  0.666667  0.333333      6.000000
 -0.666667  0.333333 -0.166667      6.000000
  0.166667 -0.333333  0.666667      6.000000
 -0.666667  0.166667  0.333333      6.000000
  0.666667  0.333333 -1.166667      6.000000
 -0.833333  0.333333  0.666667      6.000000
  0.750000 -0.583333 -0.250000      6.000000
 -0.416667 -0.250000  0.750000      6.000000
  1.250000 -0.250000 -0.583333      6.000000
  0.250000 -0.583333  0.750000      6.000000
  0.250000 -0.416667  0.750000      6.000000
 -0.750000  0.250000  0.416667      6.000000
 -0.416667  1.250000 -0.250000      6.000000
 -0.750000  0.250000  0.583333      6.000000
  0.666667 -0.500000 -0.166667      6.000000
 -0.500000 -0.333333  0.833333      6.000000
  0.333333 -1.166667  0.500000      6.000000
  0.166667 -0.500000  0.666667      6.000000
 -0.666667  0.500000 -0.166667      6.000000
 -0.833333  0.333333  0.500000      6.000000
 -0.500000  1.166667 -0.333333      6.000000
 -0.666667  0.166667  0.500000      6.000000
  0.583333 -0.416667 -0.083333      6.000000
  0.416667  0.583333 -0.083333      6.000000
  0.416667 -1.083333  0.583333      6.000000
  0.083333 -0.416667  0.583333      6.000000
 -0.583333  0.416667 -0.083333      6.000000
 -0.916667  0.416667  0.583333      6.000000
  0.416667  0.083333  0.583333      6.000000
 -0.583333  0.083333  0.416667      6.000000
  0.500000 -0.333333  0.000000      6.000000
  0.333333  0.500000  0.000000      6.000000
 -0.000000 -0.333333  0.500000      6.000000
  0.000000 -0.500000 -0.333333      6.000000
  0.000000  0.166667  0.666667      6.000000
 -0.166667  0.000000  0.666667      6.000000
 -0.000000  0.666667  0.166667      6.000000
 -0.000000 -0.166667  0.666667      6.000000
 -0.083333  0.250000  0.750000      6.000000
 -0.250000 -0.083333  0.750000      6.000000
  0.083333  0.750000  0.250000      6.000000
 -0.750000  0.250000 -0.083333      6.000000
  0.083333 -0.250000  0.750000      6.000000
 -0.750000  0.083333  0.250000      6.000000
  0.750000  0.250000 -1.083333      6.000000
 -0.916667  0.250000  0.750000      6.000000
  0.833333 -0.666667 -0.166667      6.000000
 -0.333333 -0.166667  0.833333      6.000000
  1.166667 -0.166667 -0.666667      6.000000
  0.166667 -0.666667  0.833333      6.000000
  0.166667 -0.333333  0.833333      6.000000
 -0.833333  0.166667  0.333333      6.000000
 -0.333333  1.166667 -0.166667      6.000000
 -0.833333  0.166667  0.666667      6.000000
  0.750000 -0.583333 -0.083333      6.000000
 -0.416667 -0.250000  0.916667      6.000000
  0.250000 -1.083333  0.416667      6.000000
  0.083333 -0.583333  0.750000      6.000000
 -0.750000  0.583333 -0.083333      6.000000
 -0.916667  0.250000  0.416667      6.000000
 -0.416667  1.083333 -0.250000      6.000000
 -0.750000  0.083333  0.583333      6.000000
  0.666667 -0.500000  0.000000      6.000000
 -0.500000 -0.333333  1.000000      6.000000
 -0.000000 -0.500000  0.666667      6.000000
 -1.000000  0.333333  0.500000      6.000000
 -0.000000  0.166667  0.833333      6.000000
 -0.166667 -0.000000  0.833333      6.000000
  0.000000  0.833333  0.166667      6.000000
  0.000000 -0.166667  0.833333      6.000000
  0.916667 -0.750000 -0.083333      6.000000
 -0.250000 -0.083333  0.916667      6.000000
  1.083333 -0.083333 -0.750000      6.000000
  0.083333 -0.750000  0.916667      6.000000
  0.083333 -0.250000  0.916667      6.000000
 -0.916667  0.083333  0.250000      6.000000
 -0.250000  1.083333 -0.083333      6.000000
 -0.916667  0.083333  0.750000      6.000000
  0.833333 -0.666667 -0.000000      6.000000
 -0.333333 -0.166667  1.000000      6.000000
  0.000000 -0.666667  0.833333      6.000000
 -1.000000  0.166667  0.333333      6.000000
  1.000000 -0.833333  0.000000      6.000000
 -0.166667 -0.000000  1.000000      6.000000
  0.000000  0.333333  0.666667      6.000000
 -0.333333  0.000000  0.666667      6.000000
 -0.000000  0.666667  0.333333      6.000000
 -0.000000 -0.333333  0.666667      6.000000
  0.916667 -0.583333 -0.250000      6.000000
 -0.416667 -0.083333  0.750000      6.000000
  1.083333 -0.250000 -0.583333      6.000000
 -0.750000  0.416667 -0.083333      6.000000
  0.083333 -0.416667  0.750000      6.000000
 -0.750000  0.083333  0.416667      6.000000
  0.583333  0.250000 -1.083333      6.000000
 -0.916667  0.250000  0.583333      6.000000
  0.833333 -0.500000 -0.166667      6.000000
  1.166667 -0.166667 -0.500000      6.000000
  0.166667 -0.500000  0.833333      6.000000
 -0.833333  0.166667  0.500000      6.000000
  1.000000 -0.666667 -0.166667      6.000000
 -0.333333 -0.000000  0.833333      6.000000
  1.000000 -0.166667 -0.666667      6.000000
  0.000000 -0.333333  0.833333      6.000000
  0.916667 -0.583333 -0.083333      6.000000
 -0.416667 -0.083333  0.916667      6.000000
  1.083333 -0.083333 -0.583333      6.000000
  0.083333 -0.583333  0.916667      6.000000
  0.083333 -0.416667  0.916667      6.000000
 -0.916667  0.083333  0.416667      6.000000
 -0.416667  1.083333 -0.083333      6.000000
 -0.916667  0.083333  0.583333      6.000000
  0.833333 -0.500000  0.000000      6.000000
 -0.500000 -0.166667  1.000000      6.000000
 -0.000000 -0.500000  0.833333      6.000000
 -1.000000  0.166667  0.500000      6.000000
  1.000000 -0.666667 -0.000000      6.000000
 -0.333333  0.000000  1.000000      6.000000
  1.000000 -0.500000  0.000000      6.000000
 
 
 Subroutine IBZKPT_HF returns following result:
 ==============================================
 
 Found   1728 k-points in 1st BZ
 the following   1728 k-points will be used (e.g. in the exchange kernel)
 Following reciprocal coordinates:   # in IRBZ
  0.000000  0.000000  0.000000    0.00057870   1 t-inv F
  0.083333 -0.000000  0.000000    0.00057870   2 t-inv F
  0.083333  0.083333  0.083333    0.00057870   3 t-inv F
  0.166667  0.000000 -0.000000    0.00057870   4 t-inv F
  0.166667  0.166667  0.166667    0.00057870   5 t-inv F
  0.250000  0.000000  0.000000    0.00057870   6 t-inv F
  0.250000  0.250000  0.250000    0.00057870   7 t-inv F
  0.333333 -0.000000  0.000000    0.00057870   8 t-inv F
  0.333333  0.333333  0.333333    0.00057870   9 t-inv F
  0.416667 -0.000000 -0.000000    0.00057870  10 t-inv F
  0.416667  0.416667  0.416667    0.00057870  11 t-inv F
  0.500000  0.000000  0.000000    0.00057870  12 t-inv F
  0.500000  0.500000  0.500000    0.00057870  13 t-inv F
  0.083333  0.083333  0.000000    0.00057870  14 t-inv F
  0.166667  0.083333  0.000000    0.00057870  15 t-inv F
  0.083333  0.083333 -0.083333    0.00057870  16 t-inv F
  0.166667  0.083333  0.166667    0.00057870  17 t-inv F
  0.083333  0.166667 -0.000000    0.00057870  18 t-inv F
  0.250000  0.083333 -0.000000    0.00057870  19 t-inv F
  0.083333  0.083333 -0.166667    0.00057870  20 t-inv F
  0.250000  0.166667  0.250000    0.00057870  21 t-inv F
  0.083333  0.250000  0.000000    0.00057870  22 t-inv F
  0.333333  0.083333  0.000000    0.00057870  23 t-inv F
  0.083333  0.083333 -0.250000    0.00057870  24 t-inv F
  0.333333  0.250000  0.333333    0.00057870  25 t-inv F
  0.083333  0.333333 -0.000000    0.00057870  26 t-inv F
  0.416667  0.083333  0.000000    0.00057870  27 t-inv F
  0.083333  0.083333 -0.333333    0.00057870  28 t-inv F
  0.416667  0.333333  0.416667    0.00057870  29 t-inv F
  0.083333  0.416667 -0.000000    0.00057870  30 t-inv F
  0.500000  0.083333 -0.000000    0.00057870  31 t-inv F
  0.083333  0.083333 -0.416667    0.00057870  32 t-inv F
  0.500000  0.416667  0.500000    0.00057870  33 t-inv F
  0.083333  0.500000  0.000000    0.00057870  34 t-inv F
 -0.416667  0.083333 -0.000000    0.00057870  35 t-inv F
  0.083333  0.083333  0.500000    0.00057870  36 t-inv F
 -0.416667  0.500000 -0.416667    0.00057870  37 t-inv F
  0.083333 -0.416667  0.000000    0.00057870  38 t-inv F
 -0.333333  0.083333  0.000000    0.00057870  39 t-inv F
  0.083333  0.083333  0.416667    0.00057870  40 t-inv F
 -0.333333 -0.416667 -0.333333    0.00057870  41 t-inv F
  0.083333 -0.333333 -0.000000    0.00057870  42 t-inv F
 -0.250000  0.083333 -0.000000    0.00057870  43 t-inv F
  0.083333  0.083333  0.333333    0.00057870  44 t-inv F
 -0.250000 -0.333333 -0.250000    0.00057870  45 t-inv F
  0.083333 -0.250000  0.000000    0.00057870  46 t-inv F
 -0.166667  0.083333 -0.000000    0.00057870  47 t-inv F
  0.083333  0.083333  0.250000    0.00057870  48 t-inv F
 -0.166667 -0.250000 -0.166667    0.00057870  49 t-inv F
  0.083333 -0.166667  0.000000    0.00057870  50 t-inv F
 -0.083333  0.083333  0.000000    0.00057870  51 t-inv F
  0.083333  0.083333  0.166667    0.00057870  52 t-inv F
  0.166667  0.166667  0.000000    0.00057870  53 t-inv F
  0.250000  0.166667  0.000000    0.00057870  54 t-inv F
  0.166667  0.166667 -0.083333    0.00057870  55 t-inv F
  0.250000  0.083333  0.250000    0.00057870  56 t-inv F
  0.166667  0.250000 -0.000000    0.00057870  57 t-inv F
  0.333333  0.166667 -0.000000    0.00057870  58 t-inv F
  0.166667  0.166667 -0.166667    0.00057870  59 t-inv F
  0.333333  0.166667  0.333333    0.00057870  60 t-inv F
  0.166667  0.333333  0.000000    0.00057870  61 t-inv F
  0.416667  0.166667  0.000000    0.00057870  62 t-inv F
  0.166667  0.166667 -0.250000    0.00057870  63 t-inv F
  0.416667  0.250000  0.416667    0.00057870  64 t-inv F
  0.166667  0.416667 -0.000000    0.00057870  65 t-inv F
  0.500000  0.166667  0.000000    0.00057870  66 t-inv F
  0.166667  0.166667 -0.333333    0.00057870  67 t-inv F
  0.500000  0.333333  0.500000    0.00057870  68 t-inv F
  0.166667  0.500000 -0.000000    0.00057870  69 t-inv F
 -0.416667  0.166667 -0.000000    0.00057870  70 t-inv F
  0.166667  0.166667 -0.416667    0.00057870  71 t-inv F
 -0.416667  0.416667 -0.416667    0.00057870  72 t-inv F
  0.166667 -0.416667  0.000000    0.00057870  73 t-inv F
 -0.333333  0.166667 -0.000000    0.00057870  74 t-inv F
  0.166667  0.166667  0.500000    0.00057870  75 t-inv F
 -0.333333  0.500000 -0.333333    0.00057870  76 t-inv F
  0.166667 -0.333333  0.000000    0.00057870  77 t-inv F
 -0.250000  0.166667  0.000000    0.00057870  78 t-inv F
  0.166667  0.166667  0.416667    0.00057870  79 t-inv F
 -0.250000 -0.416667 -0.250000    0.00057870  80 t-inv F
  0.166667 -0.250000 -0.000000    0.00057870  81 t-inv F
 -0.166667  0.166667 -0.000000    0.00057870  82 t-inv F
  0.166667  0.166667  0.333333    0.00057870  83 t-inv F
  0.250000  0.250000  0.000000    0.00057870  84 t-inv F
  0.333333  0.250000  0.000000    0.00057870  85 t-inv F
  0.250000  0.250000 -0.083333    0.00057870  86 t-inv F
  0.333333  0.083333  0.333333    0.00057870  87 t-inv F
  0.250000  0.333333 -0.000000    0.00057870  88 t-inv F
  0.416667  0.250000 -0.000000    0.00057870  89 t-inv F
  0.250000  0.250000 -0.166667    0.00057870  90 t-inv F
  0.416667  0.166667  0.416667    0.00057870  91 t-inv F
  0.250000  0.416667  0.000000    0.00057870  92 t-inv F
  0.500000  0.250000  0.000000    0.00057870  93 t-inv F
  0.250000  0.250000 -0.250000    0.00057870  94 t-inv F
  0.500000  0.250000  0.500000    0.00057870  95 t-inv F
  0.250000  0.500000 -0.000000    0.00057870  96 t-inv F
 -0.416667  0.250000  0.000000    0.00057870  97 t-inv F
  0.250000  0.250000 -0.333333    0.00057870  98 t-inv F
 -0.416667  0.333333 -0.416667    0.00057870  99 t-inv F
  0.250000 -0.416667 -0.000000    0.00057870 100 t-inv F
 -0.333333  0.250000 -0.000000    0.00057870 101 t-inv F
  0.250000  0.250000 -0.416667    0.00057870 102 t-inv F
 -0.333333  0.416667 -0.333333    0.00057870 103 t-inv F
  0.250000 -0.333333  0.000000    0.00057870 104 t-inv F
 -0.250000  0.250000 -0.000000    0.00057870 105 t-inv F
  0.250000  0.250000  0.500000    0.00057870 106 t-inv F
  0.333333  0.333333  0.000000    0.00057870 107 t-inv F
  0.416667  0.333333  0.000000    0.00057870 108 t-inv F
  0.333333  0.333333 -0.083333    0.00057870 109 t-inv F
  0.416667  0.083333  0.416667    0.00057870 110 t-inv F
  0.333333  0.416667 -0.000000    0.00057870 111 t-inv F
  0.500000  0.333333 -0.000000    0.00057870 112 t-inv F
  0.333333  0.333333 -0.166667    0.00057870 113 t-inv F
  0.500000  0.166667  0.500000    0.00057870 114 t-inv F
  0.333333  0.500000  0.000000    0.00057870 115 t-inv F
 -0.416667  0.333333 -0.000000    0.00057870 116 t-inv F
  0.333333  0.333333 -0.250000    0.00057870 117 t-inv F
 -0.416667  0.250000 -0.416667    0.00057870 118 t-inv F
  0.333333 -0.416667  0.000000    0.00057870 119 t-inv F
 -0.333333  0.333333  0.000000    0.00057870 120 t-inv F
  0.333333  0.333333 -0.333333    0.00057870 121 t-inv F
  0.416667  0.416667  0.000000    0.00057870 122 t-inv F
  0.500000  0.416667  0.000000    0.00057870 123 t-inv F
  0.416667  0.416667 -0.083333    0.00057870 124 t-inv F
  0.500000  0.083333  0.500000    0.00057870 125 t-inv F
  0.416667  0.500000 -0.000000    0.00057870 126 t-inv F
 -0.416667  0.416667 -0.000000    0.00057870 127 t-inv F
  0.416667  0.416667 -0.166667    0.00057870 128 t-inv F
  0.500000  0.500000  0.000000    0.00057870 129 t-inv F
  0.250000  0.166667  0.083333    0.00057870 130 t-inv F
  0.166667  0.083333 -0.083333    0.00057870 131 t-inv F
  0.250000  0.083333  0.166667    0.00057870 132 t-inv F
  0.083333  0.166667 -0.083333    0.00057870 133 t-inv F
  0.333333  0.166667  0.083333    0.00057870 134 t-inv F
  0.166667  0.083333 -0.166667    0.00057870 135 t-inv F
  0.333333  0.166667  0.250000    0.00057870 136 t-inv F
  0.083333 -0.250000 -0.083333    0.00057870 137 t-inv F
  0.083333  0.250000 -0.083333    0.00057870 138 t-inv F
  0.166667 -0.083333 -0.166667    0.00057870 139 t-inv F
 -0.250000 -0.166667 -0.333333    0.00057870 140 t-inv F
 -0.333333 -0.083333 -0.166667    0.00057870 141 t-inv F
  0.416667  0.166667  0.083333    0.00057870 142 t-inv F
  0.166667  0.083333 -0.250000    0.00057870 143 t-inv F
  0.416667  0.250000  0.333333    0.00057870 144 t-inv F
  0.083333 -0.333333 -0.083333    0.00057870 145 t-inv F
  0.083333  0.333333 -0.083333    0.00057870 146 t-inv F
  0.250000 -0.083333 -0.166667    0.00057870 147 t-inv F
 -0.333333 -0.250000 -0.416667    0.00057870 148 t-inv F
 -0.416667 -0.083333 -0.166667    0.00057870 149 t-inv F
  0.500000  0.166667  0.083333    0.00057870 150 t-inv F
  0.166667  0.083333 -0.333333    0.00057870 151 t-inv F
  0.500000  0.333333  0.416667    0.00057870 152 t-inv F
  0.083333 -0.416667 -0.083333    0.00057870 153 t-inv F
  0.083333  0.416667 -0.083333    0.00057870 154 t-inv F
  0.333333 -0.083333 -0.166667    0.00057870 155 t-inv F
 -0.416667 -0.333333  0.500000    0.00057870 156 t-inv F
  0.500000 -0.083333 -0.166667    0.00057870 157 t-inv F
 -0.416667  0.166667  0.083333    0.00057870 158 t-inv F
 -0.416667  0.416667  0.500000    0.00057870 159 t-inv F
  0.083333  0.500000 -0.083333    0.00057870 160 t-inv F
  0.416667 -0.083333 -0.166667    0.00057870 161 t-inv F
  0.333333  0.250000  0.083333    0.00057870 162 t-inv F
  0.250000  0.166667 -0.083333    0.00057870 163 t-inv F
  0.333333  0.083333  0.250000    0.00057870 164 t-inv F
  0.166667  0.250000 -0.083333    0.00057870 165 t-inv F
  0.416667  0.250000  0.083333    0.00057870 166 t-inv F
  0.250000  0.166667 -0.166667    0.00057870 167 t-inv F
  0.416667  0.166667  0.333333    0.00057870 168 t-inv F
  0.083333 -0.333333 -0.166667    0.00057870 169 t-inv F
  0.166667  0.333333 -0.083333    0.00057870 170 t-inv F
  0.166667 -0.166667 -0.250000    0.00057870 171 t-inv F
 -0.333333 -0.166667 -0.416667    0.00057870 172 t-inv F
 -0.416667 -0.083333 -0.250000    0.00057870 173 t-inv F
  0.500000  0.250000  0.083333    0.00057870 174 t-inv F
  0.250000  0.166667 -0.250000    0.00057870 175 t-inv F
  0.500000  0.250000  0.416667    0.00057870 176 t-inv F
  0.083333 -0.416667 -0.166667    0.00057870 177 t-inv F
  0.166667  0.416667 -0.083333    0.00057870 178 t-inv F
  0.250000 -0.166667 -0.250000    0.00057870 179 t-inv F
 -0.416667 -0.250000  0.500000    0.00057870 180 t-inv F
  0.500000 -0.083333 -0.250000    0.00057870 181 t-inv F
 -0.416667  0.250000  0.083333    0.00057870 182 t-inv F
  0.250000  0.166667 -0.333333    0.00057870 183 t-inv F
 -0.416667  0.333333  0.500000    0.00057870 184 t-inv F
  0.083333  0.500000 -0.166667    0.00057870 185 t-inv F
  0.166667  0.500000 -0.083333    0.00057870 186 t-inv F
  0.333333 -0.166667 -0.250000    0.00057870 187 t-inv F
  0.500000 -0.333333  0.416667    0.00057870 188 t-inv F
  0.416667 -0.083333 -0.250000    0.00057870 189 t-inv F
 -0.333333  0.250000  0.083333    0.00057870 190 t-inv F
  0.250000  0.166667 -0.416667    0.00057870 191 t-inv F
 -0.333333  0.416667 -0.416667    0.00057870 192 t-inv F
  0.083333  0.416667 -0.166667    0.00057870 193 t-inv F
  0.166667 -0.416667 -0.083333    0.00057870 194 t-inv F
  0.416667 -0.166667 -0.250000    0.00057870 195 t-inv F
  0.416667 -0.416667  0.333333    0.00057870 196 t-inv F
  0.333333 -0.083333 -0.250000    0.00057870 197 t-inv F
 -0.250000  0.250000  0.083333    0.00057870 198 t-inv F
  0.250000  0.166667  0.500000    0.00057870 199 t-inv F
 -0.250000  0.500000 -0.333333    0.00057870 200 t-inv F
  0.083333  0.333333 -0.166667    0.00057870 201 t-inv F
  0.166667 -0.333333 -0.083333    0.00057870 202 t-inv F
  0.500000 -0.166667 -0.250000    0.00057870 203 t-inv F
  0.333333  0.500000  0.250000    0.00057870 204 t-inv F
  0.250000 -0.083333 -0.250000    0.00057870 205 t-inv F
 -0.166667  0.250000  0.083333    0.00057870 206 t-inv F
  0.250000  0.166667  0.416667    0.00057870 207 t-inv F
  0.083333  0.250000 -0.166667    0.00057870 208 t-inv F
 -0.416667 -0.166667 -0.250000    0.00057870 209 t-inv F
  0.416667  0.333333  0.083333    0.00057870 210 t-inv F
  0.333333  0.250000 -0.083333    0.00057870 211 t-inv F
  0.416667  0.083333  0.333333    0.00057870 212 t-inv F
  0.250000  0.333333 -0.083333    0.00057870 213 t-inv F
  0.500000  0.333333  0.083333    0.00057870 214 t-inv F
  0.333333  0.250000 -0.166667    0.00057870 215 t-inv F
  0.500000  0.166667  0.416667    0.00057870 216 t-inv F
  0.083333 -0.416667 -0.250000    0.00057870 217 t-inv F
  0.250000  0.416667 -0.083333    0.00057870 218 t-inv F
  0.166667 -0.250000 -0.333333    0.00057870 219 t-inv F
 -0.416667 -0.166667  0.500000    0.00057870 220 t-inv F
  0.500000 -0.083333 -0.333333    0.00057870 221 t-inv F
 -0.416667  0.333333  0.083333    0.00057870 222 t-inv F
  0.333333  0.250000 -0.250000    0.00057870 223 t-inv F
 -0.416667  0.250000  0.500000    0.00057870 224 t-inv F
  0.083333  0.500000 -0.250000    0.00057870 225 t-inv F
  0.250000  0.500000 -0.083333    0.00057870 226 t-inv F
  0.250000 -0.250000 -0.333333    0.00057870 227 t-inv F
  0.500000 -0.250000  0.416667    0.00057870 228 t-inv F
  0.416667 -0.083333 -0.333333    0.00057870 229 t-inv F
 -0.333333  0.333333  0.083333    0.00057870 230 t-inv F
  0.333333  0.250000 -0.333333    0.00057870 231 t-inv F
 -0.333333  0.333333 -0.416667    0.00057870 232 t-inv F
  0.083333  0.416667 -0.250000    0.00057870 233 t-inv F
  0.250000 -0.416667 -0.083333    0.00057870 234 t-inv F
  0.333333 -0.250000 -0.333333    0.00057870 235 t-inv F
  0.416667 -0.333333  0.333333    0.00057870 236 t-inv F
  0.333333 -0.083333 -0.333333    0.00057870 237 t-inv F
 -0.250000  0.333333  0.083333    0.00057870 238 t-inv F
  0.333333  0.250000 -0.416667    0.00057870 239 t-inv F
  0.083333  0.333333 -0.250000    0.00057870 240 t-inv F
  0.416667 -0.250000 -0.333333    0.00057870 241 t-inv F
  0.500000  0.416667  0.083333    0.00057870 242 t-inv F
  0.416667  0.333333 -0.083333    0.00057870 243 t-inv F
  0.500000  0.083333  0.416667    0.00057870 244 t-inv F
  0.333333  0.416667 -0.083333    0.00057870 245 t-inv F
 -0.416667  0.416667  0.083333    0.00057870 246 t-inv F
  0.416667  0.333333 -0.166667    0.00057870 247 t-inv F
 -0.416667  0.166667  0.500000    0.00057870 248 t-inv F
  0.083333  0.500000 -0.333333    0.00057870 249 t-inv F
  0.333333  0.500000 -0.083333    0.00057870 250 t-inv F
  0.166667 -0.333333 -0.416667    0.00057870 251 t-inv F
  0.500000 -0.166667  0.416667    0.00057870 252 t-inv F
  0.416667 -0.083333 -0.416667    0.00057870 253 t-inv F
 -0.333333  0.416667  0.083333    0.00057870 254 t-inv F
  0.416667  0.333333 -0.250000    0.00057870 255 t-inv F
  0.083333  0.416667 -0.333333    0.00057870 256 t-inv F
  0.250000 -0.333333 -0.416667    0.00057870 257 t-inv F
 -0.416667  0.500000  0.083333    0.00057870 258 t-inv F
  0.500000  0.416667 -0.083333    0.00057870 259 t-inv F
  0.500000  0.333333  0.166667    0.00057870 260 t-inv F
  0.333333  0.166667 -0.166667    0.00057870 261 t-inv F
  0.500000  0.166667  0.333333    0.00057870 262 t-inv F
  0.166667  0.333333 -0.166667    0.00057870 263 t-inv F
 -0.416667  0.333333  0.166667    0.00057870 264 t-inv F
  0.333333  0.166667 -0.250000    0.00057870 265 t-inv F
 -0.416667  0.250000  0.416667    0.00057870 266 t-inv F
  0.166667 -0.416667 -0.166667    0.00057870 267 t-inv F
  0.166667  0.416667 -0.166667    0.00057870 268 t-inv F
  0.250000 -0.166667 -0.333333    0.00057870 269 t-inv F
 -0.416667 -0.250000  0.416667    0.00057870 270 t-inv F
  0.416667 -0.166667 -0.333333    0.00057870 271 t-inv F
 -0.333333  0.333333  0.166667    0.00057870 272 t-inv F
 -0.333333  0.333333  0.500000    0.00057870 273 t-inv F
  0.166667  0.500000 -0.166667    0.00057870 274 t-inv F
  0.333333 -0.166667 -0.333333    0.00057870 275 t-inv F
 -0.416667  0.416667  0.166667    0.00057870 276 t-inv F
  0.416667  0.250000 -0.166667    0.00057870 277 t-inv F
 -0.416667  0.166667  0.416667    0.00057870 278 t-inv F
  0.250000  0.416667 -0.166667    0.00057870 279 t-inv F
 -0.333333  0.416667  0.166667    0.00057870 280 t-inv F
  0.416667  0.250000 -0.250000    0.00057870 281 t-inv F
 -0.333333  0.250000  0.500000    0.00057870 282 t-inv F
  0.166667  0.500000 -0.250000    0.00057870 283 t-inv F
  0.250000  0.500000 -0.166667    0.00057870 284 t-inv F
  0.250000 -0.250000 -0.416667    0.00057870 285 t-inv F
  0.500000 -0.250000  0.333333    0.00057870 286 t-inv F
  0.333333 -0.166667 -0.416667    0.00057870 287 t-inv F
 -0.250000  0.416667  0.166667    0.00057870 288 t-inv F
  0.416667  0.250000 -0.333333    0.00057870 289 t-inv F
  0.166667  0.416667 -0.250000    0.00057870 290 t-inv F
  0.333333 -0.250000 -0.416667    0.00057870 291 t-inv F
 -0.333333  0.500000  0.166667    0.00057870 292 t-inv F
  0.500000  0.333333 -0.166667    0.00057870 293 t-inv F
 -0.250000  0.500000  0.250000    0.00057870 294 t-inv F
 -0.083333  0.000000 -0.000000    0.00057870   2 t-inv F
  0.000000  0.083333 -0.000000    0.00057870   2 t-inv F
 -0.000000 -0.083333  0.000000    0.00057870   2 t-inv F
 -0.000000  0.000000  0.083333    0.00057870   2 t-inv F
  0.000000 -0.000000 -0.083333    0.00057870   2 t-inv F
 -0.083333 -0.083333 -0.083333    0.00057870   3 t-inv F
 -0.166667 -0.000000  0.000000    0.00057870   4 t-inv F
 -0.000000  0.166667  0.000000    0.00057870   4 t-inv F
  0.000000 -0.166667 -0.000000    0.00057870   4 t-inv F
  0.000000 -0.000000  0.166667    0.00057870   4 t-inv F
 -0.000000  0.000000 -0.166667    0.00057870   4 t-inv F
 -0.166667 -0.166667 -0.166667    0.00057870   5 t-inv F
 -0.250000 -0.000000 -0.000000    0.00057870   6 t-inv F
  0.000000  0.250000  0.000000    0.00057870   6 t-inv F
 -0.000000 -0.250000 -0.000000    0.00057870   6 t-inv F
  0.000000  0.000000  0.250000    0.00057870   6 t-inv F
 -0.000000 -0.000000 -0.250000    0.00057870   6 t-inv F
 -0.250000 -0.250000 -0.250000    0.00057870   7 t-inv F
 -0.333333  0.000000 -0.000000    0.00057870   8 t-inv F
  0.000000  0.333333 -0.000000    0.00057870   8 t-inv F
 -0.000000 -0.333333  0.000000    0.00057870   8 t-inv F
 -0.000000  0.000000  0.333333    0.00057870   8 t-inv F
  0.000000 -0.000000 -0.333333    0.00057870   8 t-inv F
 -0.333333 -0.333333 -0.333333    0.00057870   9 t-inv F
 -0.416667  0.000000  0.000000    0.00057870  10 t-inv F
 -0.000000  0.416667 -0.000000    0.00057870  10 t-inv F
  0.000000 -0.416667  0.000000    0.00057870  10 t-inv F
 -0.000000 -0.000000  0.416667    0.00057870  10 t-inv F
  0.000000  0.000000 -0.416667    0.00057870  10 t-inv F
 -0.416667 -0.416667 -0.416667    0.00057870  11 t-inv F
  0.000000  0.500000  0.000000    0.00057870  12 t-inv F
  0.000000  0.000000  0.500000    0.00057870  12 t-inv F
 -0.083333 -0.083333 -0.000000    0.00057870  14 t-inv F
  0.000000  0.083333  0.083333    0.00057870  14 t-inv F
 -0.000000 -0.083333 -0.083333    0.00057870  14 t-inv F
  0.083333  0.000000  0.083333    0.00057870  14 t-inv F
 -0.083333 -0.000000 -0.083333    0.00057870  14 t-inv F
 -0.166667 -0.083333 -0.000000    0.00057870  15 t-inv F
  0.000000  0.166667  0.083333    0.00057870  15 t-inv F
 -0.000000 -0.166667 -0.083333    0.00057870  15 t-inv F
  0.083333  0.000000  0.166667    0.00057870  15 t-inv F
 -0.083333 -0.000000 -0.166667    0.00057870  15 t-inv F
 -0.083333 -0.083333  0.083333    0.00057870  16 t-inv F
 -0.083333  0.083333  0.083333    0.00057870  16 t-inv F
  0.083333 -0.083333 -0.083333    0.00057870  16 t-inv F
  0.083333 -0.083333  0.083333    0.00057870  16 t-inv F
 -0.083333  0.083333 -0.083333    0.00057870  16 t-inv F
 -0.166667 -0.083333 -0.166667    0.00057870  17 t-inv F
  0.166667  0.166667  0.083333    0.00057870  17 t-inv F
 -0.166667 -0.166667 -0.083333    0.00057870  17 t-inv F
  0.083333  0.166667  0.166667    0.00057870  17 t-inv F
 -0.083333 -0.166667 -0.166667    0.00057870  17 t-inv F
 -0.083333 -0.166667  0.000000    0.00057870  18 t-inv F
 -0.000000  0.083333  0.166667    0.00057870  18 t-inv F
  0.000000 -0.083333 -0.166667    0.00057870  18 t-inv F
  0.166667 -0.000000  0.083333    0.00057870  18 t-inv F
 -0.166667  0.000000 -0.083333    0.00057870  18 t-inv F
 -0.250000 -0.083333  0.000000    0.00057870  19 t-inv F
 -0.000000  0.250000  0.083333    0.00057870  19 t-inv F
  0.000000 -0.250000 -0.083333    0.00057870  19 t-inv F
  0.083333 -0.000000  0.250000    0.00057870  19 t-inv F
 -0.083333  0.000000 -0.250000    0.00057870  19 t-inv F
 -0.083333 -0.083333  0.166667    0.00057870  20 t-inv F
 -0.166667  0.083333  0.083333    0.00057870  20 t-inv F
  0.166667 -0.083333 -0.083333    0.00057870  20 t-inv F
  0.083333 -0.166667  0.083333    0.00057870  20 t-inv F
 -0.083333  0.166667 -0.083333    0.00057870  20 t-inv F
 -0.250000 -0.166667 -0.250000    0.00057870  21 t-inv F
  0.250000  0.250000  0.166667    0.00057870  21 t-inv F
 -0.250000 -0.250000 -0.166667    0.00057870  21 t-inv F
  0.166667  0.250000  0.250000    0.00057870  21 t-inv F
 -0.166667 -0.250000 -0.250000    0.00057870  21 t-inv F
 -0.083333 -0.250000 -0.000000    0.00057870  22 t-inv F
  0.000000  0.083333  0.250000    0.00057870  22 t-inv F
 -0.000000 -0.083333 -0.250000    0.00057870  22 t-inv F
  0.250000  0.000000  0.083333    0.00057870  22 t-inv F
 -0.250000 -0.000000 -0.083333    0.00057870  22 t-inv F
 -0.333333 -0.083333 -0.000000    0.00057870  23 t-inv F
  0.000000  0.333333  0.083333    0.00057870  23 t-inv F
 -0.000000 -0.333333 -0.083333    0.00057870  23 t-inv F
  0.083333  0.000000  0.333333    0.00057870  23 t-inv F
 -0.083333 -0.000000 -0.333333    0.00057870  23 t-inv F
 -0.083333 -0.083333  0.250000    0.00057870  24 t-inv F
 -0.250000  0.083333  0.083333    0.00057870  24 t-inv F
  0.250000 -0.083333 -0.083333    0.00057870  24 t-inv F
  0.083333 -0.250000  0.083333    0.00057870  24 t-inv F
 -0.083333  0.250000 -0.083333    0.00057870  24 t-inv F
 -0.333333 -0.250000 -0.333333    0.00057870  25 t-inv F
  0.333333  0.333333  0.250000    0.00057870  25 t-inv F
 -0.333333 -0.333333 -0.250000    0.00057870  25 t-inv F
  0.250000  0.333333  0.333333    0.00057870  25 t-inv F
 -0.250000 -0.333333 -0.333333    0.00057870  25 t-inv F
 -0.083333 -0.333333  0.000000    0.00057870  26 t-inv F
 -0.000000  0.083333  0.333333    0.00057870  26 t-inv F
  0.000000 -0.083333 -0.333333    0.00057870  26 t-inv F
  0.333333 -0.000000  0.083333    0.00057870  26 t-inv F
 -0.333333  0.000000 -0.083333    0.00057870  26 t-inv F
 -0.416667 -0.083333 -0.000000    0.00057870  27 t-inv F
  0.000000  0.416667  0.083333    0.00057870  27 t-inv F
 -0.000000 -0.416667 -0.083333    0.00057870  27 t-inv F
  0.083333  0.000000  0.416667    0.00057870  27 t-inv F
 -0.083333 -0.000000 -0.416667    0.00057870  27 t-inv F
 -0.083333 -0.083333  0.333333    0.00057870  28 t-inv F
 -0.333333  0.083333  0.083333    0.00057870  28 t-inv F
  0.333333 -0.083333 -0.083333    0.00057870  28 t-inv F
  0.083333 -0.333333  0.083333    0.00057870  28 t-inv F
 -0.083333  0.333333 -0.083333    0.00057870  28 t-inv F
 -0.416667 -0.333333 -0.416667    0.00057870  29 t-inv F
  0.416667  0.416667  0.333333    0.00057870  29 t-inv F
 -0.416667 -0.416667 -0.333333    0.00057870  29 t-inv F
  0.333333  0.416667  0.416667    0.00057870  29 t-inv F
 -0.333333 -0.416667 -0.416667    0.00057870  29 t-inv F
 -0.083333 -0.416667  0.000000    0.00057870  30 t-inv F
 -0.000000  0.083333  0.416667    0.00057870  30 t-inv F
  0.000000 -0.083333 -0.416667    0.00057870  30 t-inv F
  0.416667 -0.000000  0.083333    0.00057870  30 t-inv F
 -0.416667  0.000000 -0.083333    0.00057870  30 t-inv F
 -0.500000 -0.083333  0.000000    0.00057870  31 t-inv F
 -0.000000  0.500000  0.083333    0.00057870  31 t-inv F
  0.000000 -0.500000 -0.083333    0.00057870  31 t-inv F
  0.083333 -0.000000  0.500000    0.00057870  31 t-inv F
 -0.083333  0.000000 -0.500000    0.00057870  31 t-inv F
 -0.083333 -0.083333  0.416667    0.00057870  32 t-inv F
 -0.416667  0.083333  0.083333    0.00057870  32 t-inv F
  0.416667 -0.083333 -0.083333    0.00057870  32 t-inv F
  0.083333 -0.416667  0.083333    0.00057870  32 t-inv F
 -0.083333  0.416667 -0.083333    0.00057870  32 t-inv F
 -0.500000 -0.416667 -0.500000    0.00057870  33 t-inv F
  0.500000  0.500000  0.416667    0.00057870  33 t-inv F
 -0.500000 -0.500000 -0.416667    0.00057870  33 t-inv F
  0.416667  0.500000  0.500000    0.00057870  33 t-inv F
 -0.416667 -0.500000 -0.500000    0.00057870  33 t-inv F
 -0.083333 -0.500000 -0.000000    0.00057870  34 t-inv F
  0.000000  0.083333  0.500000    0.00057870  34 t-inv F
 -0.000000 -0.083333 -0.500000    0.00057870  34 t-inv F
  0.500000  0.000000  0.083333    0.00057870  34 t-inv F
 -0.500000 -0.000000 -0.083333    0.00057870  34 t-inv F
  0.416667 -0.083333  0.000000    0.00057870  35 t-inv F
 -0.000000 -0.416667  0.083333    0.00057870  35 t-inv F
  0.000000  0.416667 -0.083333    0.00057870  35 t-inv F
  0.083333 -0.000000 -0.416667    0.00057870  35 t-inv F
 -0.083333  0.000000  0.416667    0.00057870  35 t-inv F
 -0.083333 -0.083333 -0.500000    0.00057870  36 t-inv F
  0.500000  0.083333  0.083333    0.00057870  36 t-inv F
 -0.500000 -0.083333 -0.083333    0.00057870  36 t-inv F
  0.083333  0.500000  0.083333    0.00057870  36 t-inv F
 -0.083333 -0.500000 -0.083333    0.00057870  36 t-inv F
  0.416667 -0.500000  0.416667    0.00057870  37 t-inv F
 -0.416667 -0.416667  0.500000    0.00057870  37 t-inv F
  0.416667  0.416667 -0.500000    0.00057870  37 t-inv F
  0.500000 -0.416667 -0.416667    0.00057870  37 t-inv F
 -0.500000  0.416667  0.416667    0.00057870  37 t-inv F
 -0.083333  0.416667 -0.000000    0.00057870  38 t-inv F
  0.000000  0.083333 -0.416667    0.00057870  38 t-inv F
 -0.000000 -0.083333  0.416667    0.00057870  38 t-inv F
 -0.416667  0.000000  0.083333    0.00057870  38 t-inv F
  0.416667 -0.000000 -0.083333    0.00057870  38 t-inv F
  0.333333 -0.083333 -0.000000    0.00057870  39 t-inv F
  0.000000 -0.333333  0.083333    0.00057870  39 t-inv F
 -0.000000  0.333333 -0.083333    0.00057870  39 t-inv F
  0.083333  0.000000 -0.333333    0.00057870  39 t-inv F
 -0.083333 -0.000000  0.333333    0.00057870  39 t-inv F
 -0.083333 -0.083333 -0.416667    0.00057870  40 t-inv F
  0.416667  0.083333  0.083333    0.00057870  40 t-inv F
 -0.416667 -0.083333 -0.083333    0.00057870  40 t-inv F
  0.083333  0.416667  0.083333    0.00057870  40 t-inv F
 -0.083333 -0.416667 -0.083333    0.00057870  40 t-inv F
  0.333333  0.416667  0.333333    0.00057870  41 t-inv F
 -0.333333 -0.333333 -0.416667    0.00057870  41 t-inv F
  0.333333  0.333333  0.416667    0.00057870  41 t-inv F
 -0.416667 -0.333333 -0.333333    0.00057870  41 t-inv F
  0.416667  0.333333  0.333333    0.00057870  41 t-inv F
 -0.083333  0.333333  0.000000    0.00057870  42 t-inv F
 -0.000000  0.083333 -0.333333    0.00057870  42 t-inv F
  0.000000 -0.083333  0.333333    0.00057870  42 t-inv F
 -0.333333 -0.000000  0.083333    0.00057870  42 t-inv F
  0.333333  0.000000 -0.083333    0.00057870  42 t-inv F
  0.250000 -0.083333  0.000000    0.00057870  43 t-inv F
 -0.000000 -0.250000  0.083333    0.00057870  43 t-inv F
  0.000000  0.250000 -0.083333    0.00057870  43 t-inv F
  0.083333 -0.000000 -0.250000    0.00057870  43 t-inv F
 -0.083333  0.000000  0.250000    0.00057870  43 t-inv F
 -0.083333 -0.083333 -0.333333    0.00057870  44 t-inv F
  0.333333  0.083333  0.083333    0.00057870  44 t-inv F
 -0.333333 -0.083333 -0.083333    0.00057870  44 t-inv F
  0.083333  0.333333  0.083333    0.00057870  44 t-inv F
 -0.083333 -0.333333 -0.083333    0.00057870  44 t-inv F
  0.250000  0.333333  0.250000    0.00057870  45 t-inv F
 -0.250000 -0.250000 -0.333333    0.00057870  45 t-inv F
  0.250000  0.250000  0.333333    0.00057870  45 t-inv F
 -0.333333 -0.250000 -0.250000    0.00057870  45 t-inv F
  0.333333  0.250000  0.250000    0.00057870  45 t-inv F
 -0.083333  0.250000 -0.000000    0.00057870  46 t-inv F
  0.000000  0.083333 -0.250000    0.00057870  46 t-inv F
 -0.000000 -0.083333  0.250000    0.00057870  46 t-inv F
 -0.250000  0.000000  0.083333    0.00057870  46 t-inv F
  0.250000 -0.000000 -0.083333    0.00057870  46 t-inv F
  0.166667 -0.083333  0.000000    0.00057870  47 t-inv F
 -0.000000 -0.166667  0.083333    0.00057870  47 t-inv F
  0.000000  0.166667 -0.083333    0.00057870  47 t-inv F
  0.083333 -0.000000 -0.166667    0.00057870  47 t-inv F
 -0.083333  0.000000  0.166667    0.00057870  47 t-inv F
 -0.083333 -0.083333 -0.250000    0.00057870  48 t-inv F
  0.250000  0.083333  0.083333    0.00057870  48 t-inv F
 -0.250000 -0.083333 -0.083333    0.00057870  48 t-inv F
  0.083333  0.250000  0.083333    0.00057870  48 t-inv F
 -0.083333 -0.250000 -0.083333    0.00057870  48 t-inv F
  0.166667  0.250000  0.166667    0.00057870  49 t-inv F
 -0.166667 -0.166667 -0.250000    0.00057870  49 t-inv F
  0.166667  0.166667  0.250000    0.00057870  49 t-inv F
 -0.250000 -0.166667 -0.166667    0.00057870  49 t-inv F
  0.250000  0.166667  0.166667    0.00057870  49 t-inv F
 -0.083333  0.166667 -0.000000    0.00057870  50 t-inv F
  0.000000  0.083333 -0.166667    0.00057870  50 t-inv F
 -0.000000 -0.083333  0.166667    0.00057870  50 t-inv F
 -0.166667  0.000000  0.083333    0.00057870  50 t-inv F
  0.166667 -0.000000 -0.083333    0.00057870  50 t-inv F
  0.083333 -0.083333 -0.000000    0.00057870  51 t-inv F
  0.000000 -0.083333  0.083333    0.00057870  51 t-inv F
 -0.000000  0.083333 -0.083333    0.00057870  51 t-inv F
  0.083333  0.000000 -0.083333    0.00057870  51 t-inv F
 -0.083333 -0.000000  0.083333    0.00057870  51 t-inv F
 -0.083333 -0.083333 -0.166667    0.00057870  52 t-inv F
  0.166667  0.083333  0.083333    0.00057870  52 t-inv F
 -0.166667 -0.083333 -0.083333    0.00057870  52 t-inv F
  0.083333  0.166667  0.083333    0.00057870  52 t-inv F
 -0.083333 -0.166667 -0.083333    0.00057870  52 t-inv F
 -0.166667 -0.166667 -0.000000    0.00057870  53 t-inv F
  0.000000  0.166667  0.166667    0.00057870  53 t-inv F
 -0.000000 -0.166667 -0.166667    0.00057870  53 t-inv F
  0.166667  0.000000  0.166667    0.00057870  53 t-inv F
 -0.166667 -0.000000 -0.166667    0.00057870  53 t-inv F
 -0.250000 -0.166667 -0.000000    0.00057870  54 t-inv F
  0.000000  0.250000  0.166667    0.00057870  54 t-inv F
 -0.000000 -0.250000 -0.166667    0.00057870  54 t-inv F
  0.166667  0.000000  0.250000    0.00057870  54 t-inv F
 -0.166667 -0.000000 -0.250000    0.00057870  54 t-inv F
 -0.166667 -0.166667  0.083333    0.00057870  55 t-inv F
 -0.083333  0.166667  0.166667    0.00057870  55 t-inv F
  0.083333 -0.166667 -0.166667    0.00057870  55 t-inv F
  0.166667 -0.083333  0.166667    0.00057870  55 t-inv F
 -0.166667  0.083333 -0.166667    0.00057870  55 t-inv F
 -0.250000 -0.083333 -0.250000    0.00057870  56 t-inv F
  0.250000  0.250000  0.083333    0.00057870  56 t-inv F
 -0.250000 -0.250000 -0.083333    0.00057870  56 t-inv F
  0.083333  0.250000  0.250000    0.00057870  56 t-inv F
 -0.083333 -0.250000 -0.250000    0.00057870  56 t-inv F
 -0.166667 -0.250000  0.000000    0.00057870  57 t-inv F
 -0.000000  0.166667  0.250000    0.00057870  57 t-inv F
  0.000000 -0.166667 -0.250000    0.00057870  57 t-inv F
  0.250000 -0.000000  0.166667    0.00057870  57 t-inv F
 -0.250000  0.000000 -0.166667    0.00057870  57 t-inv F
 -0.333333 -0.166667  0.000000    0.00057870  58 t-inv F
 -0.000000  0.333333  0.166667    0.00057870  58 t-inv F
  0.000000 -0.333333 -0.166667    0.00057870  58 t-inv F
  0.166667 -0.000000  0.333333    0.00057870  58 t-inv F
 -0.166667  0.000000 -0.333333    0.00057870  58 t-inv F
 -0.166667 -0.166667  0.166667    0.00057870  59 t-inv F
 -0.166667  0.166667  0.166667    0.00057870  59 t-inv F
  0.166667 -0.166667 -0.166667    0.00057870  59 t-inv F
  0.166667 -0.166667  0.166667    0.00057870  59 t-inv F
 -0.166667  0.166667 -0.166667    0.00057870  59 t-inv F
 -0.333333 -0.166667 -0.333333    0.00057870  60 t-inv F
  0.333333  0.333333  0.166667    0.00057870  60 t-inv F
 -0.333333 -0.333333 -0.166667    0.00057870  60 t-inv F
  0.166667  0.333333  0.333333    0.00057870  60 t-inv F
 -0.166667 -0.333333 -0.333333    0.00057870  60 t-inv F
 -0.166667 -0.333333 -0.000000    0.00057870  61 t-inv F
  0.000000  0.166667  0.333333    0.00057870  61 t-inv F
 -0.000000 -0.166667 -0.333333    0.00057870  61 t-inv F
  0.333333  0.000000  0.166667    0.00057870  61 t-inv F
 -0.333333 -0.000000 -0.166667    0.00057870  61 t-inv F
 -0.416667 -0.166667 -0.000000    0.00057870  62 t-inv F
  0.000000  0.416667  0.166667    0.00057870  62 t-inv F
 -0.000000 -0.416667 -0.166667    0.00057870  62 t-inv F
  0.166667  0.000000  0.416667    0.00057870  62 t-inv F
 -0.166667 -0.000000 -0.416667    0.00057870  62 t-inv F
 -0.166667 -0.166667  0.250000    0.00057870  63 t-inv F
 -0.250000  0.166667  0.166667    0.00057870  63 t-inv F
  0.250000 -0.166667 -0.166667    0.00057870  63 t-inv F
  0.166667 -0.250000  0.166667    0.00057870  63 t-inv F
 -0.166667  0.250000 -0.166667    0.00057870  63 t-inv F
 -0.416667 -0.250000 -0.416667    0.00057870  64 t-inv F
  0.416667  0.416667  0.250000    0.00057870  64 t-inv F
 -0.416667 -0.416667 -0.250000    0.00057870  64 t-inv F
  0.250000  0.416667  0.416667    0.00057870  64 t-inv F
 -0.250000 -0.416667 -0.416667    0.00057870  64 t-inv F
 -0.166667 -0.416667  0.000000    0.00057870  65 t-inv F
 -0.000000  0.166667  0.416667    0.00057870  65 t-inv F
  0.000000 -0.166667 -0.416667    0.00057870  65 t-inv F
  0.416667 -0.000000  0.166667    0.00057870  65 t-inv F
 -0.416667  0.000000 -0.166667    0.00057870  65 t-inv F
 -0.500000 -0.166667 -0.000000    0.00057870  66 t-inv F
  0.000000  0.500000  0.166667    0.00057870  66 t-inv F
 -0.000000 -0.500000 -0.166667    0.00057870  66 t-inv F
  0.166667  0.000000  0.500000    0.00057870  66 t-inv F
 -0.166667 -0.000000 -0.500000    0.00057870  66 t-inv F
 -0.166667 -0.166667  0.333333    0.00057870  67 t-inv F
 -0.333333  0.166667  0.166667    0.00057870  67 t-inv F
  0.333333 -0.166667 -0.166667    0.00057870  67 t-inv F
  0.166667 -0.333333  0.166667    0.00057870  67 t-inv F
 -0.166667  0.333333 -0.166667    0.00057870  67 t-inv F
 -0.500000 -0.333333 -0.500000    0.00057870  68 t-inv F
  0.500000  0.500000  0.333333    0.00057870  68 t-inv F
 -0.500000 -0.500000 -0.333333    0.00057870  68 t-inv F
  0.333333  0.500000  0.500000    0.00057870  68 t-inv F
 -0.333333 -0.500000 -0.500000    0.00057870  68 t-inv F
 -0.166667 -0.500000  0.000000    0.00057870  69 t-inv F
 -0.000000  0.166667  0.500000    0.00057870  69 t-inv F
  0.000000 -0.166667 -0.500000    0.00057870  69 t-inv F
  0.500000 -0.000000  0.166667    0.00057870  69 t-inv F
 -0.500000  0.000000 -0.166667    0.00057870  69 t-inv F
  0.416667 -0.166667  0.000000    0.00057870  70 t-inv F
 -0.000000 -0.416667  0.166667    0.00057870  70 t-inv F
  0.000000  0.416667 -0.166667    0.00057870  70 t-inv F
  0.166667 -0.000000 -0.416667    0.00057870  70 t-inv F
 -0.166667  0.000000  0.416667    0.00057870  70 t-inv F
 -0.166667 -0.166667  0.416667    0.00057870  71 t-inv F
 -0.416667  0.166667  0.166667    0.00057870  71 t-inv F
  0.416667 -0.166667 -0.166667    0.00057870  71 t-inv F
  0.166667 -0.416667  0.166667    0.00057870  71 t-inv F
 -0.166667  0.416667 -0.166667    0.00057870  71 t-inv F
  0.416667 -0.416667  0.416667    0.00057870  72 t-inv F
 -0.416667 -0.416667  0.416667    0.00057870  72 t-inv F
  0.416667  0.416667 -0.416667    0.00057870  72 t-inv F
  0.416667 -0.416667 -0.416667    0.00057870  72 t-inv F
 -0.416667  0.416667  0.416667    0.00057870  72 t-inv F
 -0.166667  0.416667 -0.000000    0.00057870  73 t-inv F
  0.000000  0.166667 -0.416667    0.00057870  73 t-inv F
 -0.000000 -0.166667  0.416667    0.00057870  73 t-inv F
 -0.416667  0.000000  0.166667    0.00057870  73 t-inv F
  0.416667 -0.000000 -0.166667    0.00057870  73 t-inv F
  0.333333 -0.166667  0.000000    0.00057870  74 t-inv F
 -0.000000 -0.333333  0.166667    0.00057870  74 t-inv F
  0.000000  0.333333 -0.166667    0.00057870  74 t-inv F
  0.166667 -0.000000 -0.333333    0.00057870  74 t-inv F
 -0.166667  0.000000  0.333333    0.00057870  74 t-inv F
 -0.166667 -0.166667 -0.500000    0.00057870  75 t-inv F
  0.500000  0.166667  0.166667    0.00057870  75 t-inv F
 -0.500000 -0.166667 -0.166667    0.00057870  75 t-inv F
  0.166667  0.500000  0.166667    0.00057870  75 t-inv F
 -0.166667 -0.500000 -0.166667    0.00057870  75 t-inv F
  0.333333 -0.500000  0.333333    0.00057870  76 t-inv F
 -0.333333 -0.333333  0.500000    0.00057870  76 t-inv F
  0.333333  0.333333 -0.500000    0.00057870  76 t-inv F
  0.500000 -0.333333 -0.333333    0.00057870  76 t-inv F
 -0.500000  0.333333  0.333333    0.00057870  76 t-inv F
 -0.166667  0.333333 -0.000000    0.00057870  77 t-inv F
  0.000000  0.166667 -0.333333    0.00057870  77 t-inv F
 -0.000000 -0.166667  0.333333    0.00057870  77 t-inv F
 -0.333333  0.000000  0.166667    0.00057870  77 t-inv F
  0.333333 -0.000000 -0.166667    0.00057870  77 t-inv F
  0.250000 -0.166667 -0.000000    0.00057870  78 t-inv F
  0.000000 -0.250000  0.166667    0.00057870  78 t-inv F
 -0.000000  0.250000 -0.166667    0.00057870  78 t-inv F
  0.166667  0.000000 -0.250000    0.00057870  78 t-inv F
 -0.166667 -0.000000  0.250000    0.00057870  78 t-inv F
 -0.166667 -0.166667 -0.416667    0.00057870  79 t-inv F
  0.416667  0.166667  0.166667    0.00057870  79 t-inv F
 -0.416667 -0.166667 -0.166667    0.00057870  79 t-inv F
  0.166667  0.416667  0.166667    0.00057870  79 t-inv F
 -0.166667 -0.416667 -0.166667    0.00057870  79 t-inv F
  0.250000  0.416667  0.250000    0.00057870  80 t-inv F
 -0.250000 -0.250000 -0.416667    0.00057870  80 t-inv F
  0.250000  0.250000  0.416667    0.00057870  80 t-inv F
 -0.416667 -0.250000 -0.250000    0.00057870  80 t-inv F
  0.416667  0.250000  0.250000    0.00057870  80 t-inv F
 -0.166667  0.250000  0.000000    0.00057870  81 t-inv F
 -0.000000  0.166667 -0.250000    0.00057870  81 t-inv F
  0.000000 -0.166667  0.250000    0.00057870  81 t-inv F
 -0.250000 -0.000000  0.166667    0.00057870  81 t-inv F
  0.250000  0.000000 -0.166667    0.00057870  81 t-inv F
  0.166667 -0.166667  0.000000    0.00057870  82 t-inv F
 -0.000000 -0.166667  0.166667    0.00057870  82 t-inv F
  0.000000  0.166667 -0.166667    0.00057870  82 t-inv F
  0.166667 -0.000000 -0.166667    0.00057870  82 t-inv F
 -0.166667  0.000000  0.166667    0.00057870  82 t-inv F
 -0.166667 -0.166667 -0.333333    0.00057870  83 t-inv F
  0.333333  0.166667  0.166667    0.00057870  83 t-inv F
 -0.333333 -0.166667 -0.166667    0.00057870  83 t-inv F
  0.166667  0.333333  0.166667    0.00057870  83 t-inv F
 -0.166667 -0.333333 -0.166667    0.00057870  83 t-inv F
 -0.250000 -0.250000 -0.000000    0.00057870  84 t-inv F
  0.000000  0.250000  0.250000    0.00057870  84 t-inv F
 -0.000000 -0.250000 -0.250000    0.00057870  84 t-inv F
  0.250000  0.000000  0.250000    0.00057870  84 t-inv F
 -0.250000 -0.000000 -0.250000    0.00057870  84 t-inv F
 -0.333333 -0.250000 -0.000000    0.00057870  85 t-inv F
  0.000000  0.333333  0.250000    0.00057870  85 t-inv F
 -0.000000 -0.333333 -0.250000    0.00057870  85 t-inv F
  0.250000  0.000000  0.333333    0.00057870  85 t-inv F
 -0.250000 -0.000000 -0.333333    0.00057870  85 t-inv F
 -0.250000 -0.250000  0.083333    0.00057870  86 t-inv F
 -0.083333  0.250000  0.250000    0.00057870  86 t-inv F
  0.083333 -0.250000 -0.250000    0.00057870  86 t-inv F
[...]
  0.000   0.000  -0.000   0.000   0.050   0.000  -0.000  -0.005   0.000   0.000   0.000   0.000   0.000   0.000   0.000   0.000
  0.000   0.000   0.055   0.000  -0.000  -0.006  -0.000   0.000   0.000   0.000   0.000   0.000   0.000   0.000   0.000   0.000
  0.000   0.000   0.000   0.000   0.000  -0.000  -0.000  -0.000   0.000   0.000   0.000   0.000   0.000   0.000   0.000   0.000
  0.000   0.000   0.043  -0.000   0.000  -0.005   0.000  -0.000   0.000   0.000   0.000   0.000   0.000   0.000   0.000   0.000
  0.000   0.000   0.000  -0.070   0.000  -0.000   0.008  -0.000   0.000   0.000   0.000   0.000   0.000   0.000   0.000   0.000
  0.000   0.000   0.000  -0.000   0.043  -0.000   0.000  -0.005   0.000   0.000   0.000   0.000   0.000   0.000   0.000   0.000
  0.000   0.000   0.000   0.000  -0.000  -0.000  -0.000   0.000   0.000   0.000   0.000   0.000   0.000   0.000   0.000   0.000
  0.000   0.000   0.000  -0.000  -0.055  -0.000   0.000   0.006   0.000   0.000   0.000   0.000   0.000   0.000   0.000   0.000
 total augmentation occupancy for first ion, spin component:           2
  0.001   0.002   0.000   0.000   0.000   0.000   0.000   0.000  -0.000  -0.000   0.000  -0.000  -0.000  -0.000  -0.000   0.000
  0.002  -0.006   0.000   0.000   0.000   0.000   0.000   0.000  -0.000   0.000  -0.000  -0.000   0.000   0.000   0.000  -0.000
  0.000   0.000   0.000   0.000  -0.000   0.000  -0.000  -0.000   0.000   0.000   0.000   0.000   0.000   0.000   0.000   0.000
  0.000   0.000   0.000   0.000  -0.000  -0.000   0.000  -0.000   0.000   0.000   0.000   0.000   0.000   0.000   0.000   0.000
  0.000   0.000  -0.000  -0.000   0.000   0.000   0.000   0.000   0.000   0.000   0.000   0.000   0.000   0.000   0.000   0.000
  0.000   0.000   0.000  -0.000   0.000  -0.000   0.000   0.000   0.000   0.000   0.000   0.000   0.000   0.000   0.000   0.000
  0.000   0.000  -0.000   0.000   0.000   0.000  -0.000   0.000   0.000   0.000   0.000   0.000   0.000   0.000   0.000   0.000
  0.000   0.000  -0.000  -0.000   0.000   0.000   0.000  -0.000   0.000   0.000   0.000   0.000   0.000   0.000   0.000   0.000
 -0.000  -0.000   0.000   0.000   0.000   0.000   0.000   0.000  -0.000  -0.000   0.000   0.000  -0.000  -0.000  -0.000   0.000
 -0.000   0.000   0.000   0.000   0.000   0.000   0.000   0.000  -0.000  -0.000  -0.000  -0.000   0.000   0.000  -0.000   0.000
  0.000  -0.000   0.000   0.000   0.000   0.000   0.000   0.000   0.000  -0.000   0.000   0.000  -0.000   0.000   0.000   0.000
 -0.000  -0.000   0.000   0.000   0.000   0.000   0.000   0.000   0.000  -0.000   0.000  -0.000  -0.000  -0.000  -0.000   0.000
 -0.000   0.000   0.000   0.000   0.000   0.000   0.000   0.000  -0.000   0.000  -0.000  -0.000   0.000   0.000  -0.000   0.000
 -0.000   0.000   0.000   0.000   0.000   0.000   0.000   0.000  -0.000   0.000   0.000  -0.000   0.000   0.000  -0.000   0.000
 -0.000   0.000   0.000   0.000   0.000   0.000   0.000   0.000  -0.000  -0.000   0.000  -0.000  -0.000  -0.000   0.000   0.000
  0.000  -0.000   0.000   0.000   0.000   0.000   0.000   0.000   0.000   0.000   0.000   0.000   0.000   0.000   0.000   0.000
 -0.000   0.000   0.000   0.000   0.000   0.000   0.000   0.000  -0.000   0.000  -0.000  -0.000   0.000  -0.000  -0.000  -0.000
 -0.000   0.000   0.000   0.000   0.000   0.000   0.000   0.000  -0.000  -0.000   0.000  -0.000   0.000   0.000  -0.000   0.000
  0.000   0.000  -0.000  -0.000   0.000   0.000  -0.000  -0.000   0.000   0.000   0.000   0.000   0.000   0.000   0.000   0.000
  0.000   0.000  -0.000  -0.000  -0.000   0.000   0.000   0.000   0.000   0.000   0.000   0.000   0.000   0.000   0.000   0.000
  0.000   0.000  -0.000   0.000  -0.000   0.000   0.000   0.000   0.000   0.000   0.000   0.000   0.000   0.000   0.000   0.000
  0.000   0.000   0.000   0.000  -0.000  -0.000  -0.000   0.000   0.000   0.000   0.000   0.000   0.000   0.000   0.000   0.000
  0.000   0.000  -0.000  -0.000  -0.000  -0.000   0.000   0.000   0.000   0.000   0.000   0.000   0.000   0.000   0.000   0.000
  0.000   0.000  -0.000   0.000   0.000  -0.000  -0.000  -0.000   0.000   0.000   0.000   0.000   0.000   0.000   0.000   0.000
  0.000   0.000   0.000   0.000   0.000  -0.000   0.000  -0.000   0.000   0.000   0.000   0.000   0.000   0.000   0.000   0.000
  0.000   0.000   0.000   0.000  -0.000  -0.000  -0.000  -0.000   0.000   0.000   0.000   0.000   0.000   0.000   0.000   0.000
  0.000   0.000   0.000   0.000   0.000  -0.000  -0.000  -0.000   0.000   0.000   0.000   0.000   0.000   0.000   0.000   0.000
  0.000   0.000   0.000  -0.000   0.000  -0.000  -0.000  -0.000   0.000   0.000   0.000   0.000   0.000   0.000   0.000   0.000
  0.000   0.000  -0.000  -0.000   0.000   0.000   0.000   0.000   0.000   0.000   0.000   0.000   0.000   0.000   0.000   0.000
  0.000   0.000   0.000   0.000   0.000   0.000   0.000  -0.000   0.000   0.000   0.000   0.000   0.000   0.000   0.000   0.000
  0.000   0.000   0.000  -0.000  -0.000   0.000   0.000   0.000   0.000   0.000   0.000   0.000   0.000   0.000   0.000   0.000
  0.000   0.000  -0.000  -0.000  -0.000  -0.000  -0.000   0.000   0.000   0.000   0.000   0.000   0.000   0.000   0.000   0.000
 total augmentation occupancy for first ion, spin component:           3
  0.001   0.002   0.000   0.000   0.000   0.000   0.000   0.000  -0.000  -0.000   0.000  -0.000   0.000  -0.000  -0.000   0.000
  0.002  -0.006   0.000   0.000   0.000   0.000   0.000   0.000  -0.000  -0.000  -0.000   0.000  -0.000   0.000   0.000  -0.000
  0.000   0.000   0.000  -0.000  -0.000   0.000   0.000   0.000   0.000   0.000   0.000   0.000   0.000   0.000   0.000   0.000
  0.000   0.000  -0.000   0.000   0.000  -0.000   0.000  -0.000   0.000   0.000   0.000   0.000   0.000   0.000   0.000   0.000
  0.000   0.000  -0.000   0.000   0.000  -0.000  -0.000   0.000   0.000   0.000   0.000   0.000   0.000   0.000   0.000   0.000
  0.000   0.000   0.000  -0.000  -0.000  -0.000   0.000   0.000   0.000   0.000   0.000   0.000   0.000   0.000   0.000   0.000
  0.000   0.000   0.000   0.000  -0.000   0.000  -0.000   0.000   0.000   0.000   0.000   0.000   0.000   0.000   0.000   0.000
  0.000   0.000   0.000  -0.000   0.000   0.000   0.000  -0.000   0.000   0.000   0.000   0.000   0.000   0.000   0.000   0.000
 -0.000  -0.000   0.000   0.000   0.000   0.000   0.000   0.000  -0.000   0.000   0.000  -0.000   0.000  -0.000  -0.000   0.000
 -0.000  -0.000   0.000   0.000   0.000   0.000   0.000   0.000   0.000  -0.000   0.000  -0.000   0.000  -0.000  -0.000   0.000
  0.000  -0.000   0.000   0.000   0.000   0.000   0.000   0.000   0.000   0.000   0.000   0.000   0.000   0.000  -0.000   0.000
 -0.000   0.000   0.000   0.000   0.000   0.000   0.000   0.000  -0.000  -0.000   0.000  -0.000  -0.000   0.000   0.000   0.000
  0.000  -0.000   0.000   0.000   0.000   0.000   0.000   0.000   0.000   0.000   0.000  -0.000   0.000  -0.000  -0.000  -0.000
 -0.000   0.000   0.000   0.000   0.000   0.000   0.000   0.000  -0.000  -0.000   0.000   0.000  -0.000   0.000  -0.000   0.000
 -0.000   0.000   0.000   0.000   0.000   0.000   0.000   0.000  -0.000  -0.000  -0.000   0.000  -0.000  -0.000   0.000  -0.000
  0.000  -0.000   0.000   0.000   0.000   0.000   0.000   0.000   0.000   0.000   0.000   0.000  -0.000   0.000  -0.000   0.000
 -0.000   0.000   0.000   0.000   0.000   0.000   0.000   0.000  -0.000  -0.000   0.000  -0.000   0.000  -0.000  -0.000   0.000
  0.000  -0.000   0.000   0.000   0.000   0.000   0.000   0.000   0.000   0.000  -0.000   0.000   0.000  -0.000  -0.000  -0.000
  0.000   0.000  -0.000  -0.000  -0.000   0.000  -0.000   0.000   0.000   0.000   0.000   0.000   0.000   0.000   0.000   0.000
  0.000   0.000  -0.000  -0.000  -0.000   0.000   0.000   0.000   0.000   0.000   0.000   0.000   0.000   0.000   0.000   0.000
  0.000   0.000  -0.000  -0.000  -0.000   0.000   0.000  -0.000   0.000   0.000   0.000   0.000   0.000   0.000   0.000   0.000
  0.000   0.000  -0.000   0.000   0.000   0.000  -0.000  -0.000   0.000   0.000   0.000   0.000   0.000   0.000   0.000   0.000
  0.000   0.000  -0.000   0.000  -0.000   0.000   0.000   0.000   0.000   0.000   0.000   0.000   0.000   0.000   0.000   0.000
  0.000   0.000  -0.000  -0.000   0.000   0.000   0.000   0.000   0.000   0.000   0.000   0.000   0.000   0.000   0.000   0.000
  0.000   0.000  -0.000   0.000   0.000   0.000   0.000  -0.000   0.000   0.000   0.000   0.000   0.000   0.000   0.000   0.000
  0.000   0.000   0.000   0.000   0.000  -0.000   0.000   0.000   0.000   0.000   0.000   0.000   0.000   0.000   0.000   0.000
  0.000   0.000   0.000   0.000   0.000  -0.000  -0.000  -0.000   0.000   0.000   0.000   0.000   0.000   0.000   0.000   0.000
  0.000   0.000   0.000   0.000   0.000  -0.000   0.000   0.000   0.000   0.000   0.000   0.000   0.000   0.000   0.000   0.000
  0.000   0.000   0.000  -0.000  -0.000   0.000   0.000   0.000   0.000   0.000   0.000   0.000   0.000   0.000   0.000   0.000
  0.000   0.000   0.000  -0.000   0.000  -0.000  -0.000  -0.000   0.000   0.000   0.000   0.000   0.000   0.000   0.000   0.000
  0.000   0.000   0.000   0.000  -0.000  -0.000  -0.000  -0.000   0.000   0.000   0.000   0.000   0.000   0.000   0.000   0.000
  0.000   0.000   0.000  -0.000  -0.000   0.000   0.000   0.000   0.000   0.000   0.000   0.000   0.000   0.000   0.000   0.000
 total augmentation occupancy for first ion, spin component:           4
  0.001   0.002   0.000   0.000   0.000   0.000   0.000   0.000  -0.000  -0.000  -0.000  -0.000  -0.000  -0.000  -0.000  -0.000
  0.002  -0.006   0.000   0.000   0.000   0.000   0.000   0.000   0.000  -0.000   0.000  -0.000   0.000   0.000   0.000   0.000
  0.000   0.000   0.000  -0.000   0.000   0.000  -0.000  -0.000   0.000   0.000   0.000   0.000   0.000   0.000   0.000   0.000
  0.000   0.000  -0.000   0.000  -0.000   0.000   0.000   0.000   0.000   0.000   0.000   0.000   0.000   0.000   0.000   0.000
  0.000   0.000   0.000  -0.000   0.000  -0.000  -0.000   0.000   0.000   0.000   0.000   0.000   0.000   0.000   0.000   0.000
  0.000   0.000   0.000   0.000  -0.000  -0.000   0.000   0.000   0.000   0.000   0.000   0.000   0.000   0.000   0.000   0.000
  0.000   0.000  -0.000   0.000  -0.000   0.000  -0.000   0.000   0.000   0.000   0.000   0.000   0.000   0.000   0.000   0.000
  0.000   0.000  -0.000   0.000   0.000   0.000   0.000  -0.000   0.000   0.000   0.000   0.000   0.000   0.000   0.000   0.000
 -0.000   0.000   0.000   0.000   0.000   0.000   0.000   0.000  -0.000  -0.000   0.000  -0.000   0.000  -0.000   0.000  -0.000
 -0.000  -0.000   0.000   0.000   0.000   0.000   0.000   0.000  -0.000  -0.000  -0.000   0.000   0.000  -0.000  -0.000  -0.000
 -0.000   0.000   0.000   0.000   0.000   0.000   0.000   0.000   0.000  -0.000   0.000  -0.000  -0.000  -0.000   0.000   0.000
 -0.000  -0.000   0.000   0.000   0.000   0.000   0.000   0.000  -0.000   0.000  -0.000  -0.000  -0.000  -0.000  -0.000  -0.000
 -0.000   0.000   0.000   0.000   0.000   0.000   0.000   0.000   0.000   0.000  -0.000  -0.000   0.000   0.000   0.000  -0.000
 -0.000   0.000   0.000   0.000   0.000   0.000   0.000   0.000  -0.000  -0.000  -0.000  -0.000   0.000   0.000  -0.000  -0.000
 -0.000   0.000   0.000   0.000   0.000   0.000   0.000   0.000   0.000  -0.000   0.000  -0.000   0.000  -0.000   0.000   0.000
 -0.000   0.000   0.000   0.000   0.000   0.000   0.000   0.000  -0.000  -0.000   0.000  -0.000  -0.000  -0.000   0.000   0.000
 -0.000   0.000   0.000   0.000   0.000   0.000   0.000   0.000   0.000  -0.000   0.000  -0.000  -0.000  -0.000  -0.000   0.000
  0.000   0.000   0.000   0.000   0.000   0.000   0.000   0.000   0.000   0.000  -0.000  -0.000   0.000   0.000   0.000  -0.000
  0.000   0.000  -0.000   0.000  -0.000   0.000  -0.000   0.000   0.000   0.000   0.000   0.000   0.000   0.000   0.000   0.000
  0.000   0.000  -0.000  -0.000  -0.000   0.000   0.000   0.000   0.000   0.000   0.000   0.000   0.000   0.000   0.000   0.000
  0.000   0.000  -0.000   0.000  -0.000   0.000  -0.000  -0.000   0.000   0.000   0.000   0.000   0.000   0.000   0.000   0.000
  0.000   0.000   0.000   0.000   0.000  -0.000  -0.000  -0.000   0.000   0.000   0.000   0.000   0.000   0.000   0.000   0.000
  0.000   0.000  -0.000   0.000  -0.000  -0.000  -0.000   0.000   0.000   0.000   0.000   0.000   0.000   0.000   0.000   0.000
  0.000   0.000   0.000   0.000  -0.000  -0.000   0.000   0.000   0.000   0.000   0.000   0.000   0.000   0.000   0.000   0.000
  0.000   0.000   0.000  -0.000   0.000  -0.000   0.000  -0.000   0.000   0.000   0.000   0.000   0.000   0.000   0.000   0.000
  0.000   0.000   0.000  -0.000   0.000  -0.000  -0.000  -0.000   0.000   0.000   0.000   0.000   0.000   0.000   0.000   0.000
  0.000   0.000   0.000   0.000   0.000  -0.000  -0.000  -0.000   0.000   0.000   0.000   0.000   0.000   0.000   0.000   0.000
  0.000   0.000   0.000  -0.000   0.000  -0.000  -0.000   0.000   0.000   0.000   0.000   0.000   0.000   0.000   0.000   0.000
  0.000   0.000  -0.000  -0.000  -0.000  -0.000   0.000  -0.000   0.000   0.000   0.000   0.000   0.000   0.000   0.000   0.000
  0.000   0.000   0.000  -0.000   0.000  -0.000  -0.000  -0.000   0.000   0.000   0.000   0.000   0.000   0.000   0.000   0.000
  0.000   0.000  -0.000  -0.000   0.000   0.000  -0.000  -0.000   0.000   0.000   0.000   0.000   0.000   0.000   0.000   0.000
  0.000   0.000  -0.000   0.000  -0.000   0.000   0.000   0.000   0.000   0.000   0.000   0.000   0.000   0.000   0.000   0.000


------------------------ aborting loop because EDIFF is reached ----------------------------------------


    CHARGE:  cpu time    0.1600: real time    0.1612
    FORLOC:  cpu time    0.0000: real time    0.0004
    FORNL :  cpu time    0.2560: real time    0.2551
    STRESS:  cpu time    0.7760: real time    0.7738
    FORCOR:  cpu time    0.0120: real time    0.0132
    FORHAR:  cpu time    0.0040: real time    0.0012
    MIXING:  cpu time    0.0000: real time    0.0024
    OFIELD:  cpu time    0.0000: real time    0.0000

  FORCE on cell =-STRESS in cart. coord.  units (eV):
  Direction    XX          YY          ZZ          XY          YZ          ZX
  --------------------------------------------------------------------------------------
  Alpha Z    80.06113    80.06113    80.06113
  Ewald    -335.70020  -335.70020  -335.70020    -0.00000     0.00000     0.00000
  Hartree    36.74278    36.74278    36.74278     0.00012     0.00012     0.00012
  E(xc)     -54.49061   -54.49061   -54.49061     0.00012     0.00012     0.00012
  Local      19.47627    19.47627    19.47627    -0.00040    -0.00040    -0.00040
  n-local    62.45101    62.59405    64.74609    -0.61126     0.95452    -0.34779
  augment   -22.39998   -22.39998   -22.39998    -0.00009    -0.00009    -0.00010
  Kinetic   216.12361   214.62070   207.73640     1.57199    -2.27616     0.70727
  Fock        0.00000     0.00000     0.00000     0.00000     0.00000     0.00000
  -------------------------------------------------------------------------------------
  Total      -0.22000    -0.22000    -0.22000    -0.00073    -0.00073    -0.00073
  in kB     -13.40806   -13.40806   -13.40806    -0.04429    -0.04429    -0.04429
  external pressure =      -13.41 kB  Pullay stress =        0.00 kB


 VOLUME and BASIS-vectors are now :
 -----------------------------------------------------------------------------
  energy-cutoff  :      273.04
  volume of cell :       26.29
      direct lattice vectors                 reciprocal lattice vectors
     0.000000000  2.360000000  2.360000000    -0.211864407  0.211864407  0.211864407
     2.360000000  0.000000000  2.360000000     0.211864407 -0.211864407  0.211864407
     2.360000000  2.360000000  0.000000000     0.211864407  0.211864407 -0.211864407

  length of vectors
     3.337544007  3.337544007  3.337544007     0.366959917  0.366959917  0.366959917


 FORCES acting on ions
    electron-ion (+dipol)            ewald-force                    non-local-force                 convergence-correction
 -----------------------------------------------------------------------------------------------
   0.215E-27 -.215E-27 -.104E-24   0.816E-15 -.217E-14 -.603E-15   0.105E-18 -.308E-19 0.125E-18   0.984E-15 -.255E-14 -.514E-16
 -----------------------------------------------------------------------------------------------
   0.215E-27 -.215E-27 -.104E-24   0.816E-15 -.217E-14 -.603E-15   0.105E-18 -.308E-19 0.125E-18   0.984E-15 -.255E-14 -.514E-16
 
 
 POSITION                                       TOTAL-FORCE (eV/Angst)
 -----------------------------------------------------------------------------------
      0.00000      0.00000      0.00000        -0.000000     -0.000000     -0.000000
 -----------------------------------------------------------------------------------
    total drift:                                0.000000     -0.000000     -0.000000


--------------------------------------------------------------------------------------------------------



  FREE ENERGIE OF THE ION-ELECTRON SYSTEM (eV)
  ---------------------------------------------------
  free  energy   TOTEN  =        -6.28838771 eV

  energy  without entropy=       -6.28487195  energy(sigma->0) =       -6.28750877
 


--------------------------------------------------------------------------------------------------------


    POTLOK:  cpu time    2.5200: real time    2.5173


--------------------------------------------------------------------------------------------------------


 writing wavefunctions
     LOOP+:  cpu time  124.9000: real time  124.9370
    4ORBIT:  cpu time    0.0000: real time    0.0000

 Spin-Orbit-Coupling matrix elements

 Ion:    1  E_soc:     -0.7203733
 l=   1
     0.0000000    -0.1125910    -0.1125910
    -0.1125910     0.0000000    -0.1125910
    -0.1125910    -0.1125910     0.0000000
 l=   2
     0.0000000    -0.0000651     0.0000000    -0.0000651    -0.0010348
    -0.0000651     0.0000000    -0.0007761    -0.0000651    -0.0002587
     0.0000000    -0.0007761     0.0000000    -0.0007761     0.0000000
    -0.0000651    -0.0000651    -0.0007761     0.0000000    -0.0002587
    -0.0010348    -0.0002587     0.0000000    -0.0002587     0.0000000
 l=   3
     0.0000000    -0.0007175     0.0000000     0.0000000     0.0000000    -0.0006507    -0.0041627
    -0.0007175     0.0000000    -0.0011958     0.0000000    -0.0011958    -0.0019133    -0.0007175
     0.0000000    -0.0011958     0.0000000    -0.0029398    -0.0002953    -0.0008675     0.0000000
     0.0000000     0.0000000    -0.0029398     0.0000000    -0.0029398     0.0000000     0.0000000
     0.0000000    -0.0011958    -0.0002953    -0.0029398     0.0000000    -0.0008675     0.0000000
    -0.0006507    -0.0019133    -0.0008675     0.0000000    -0.0008675     0.0000000    -0.0006507
    -0.0041627    -0.0007175     0.0000000     0.0000000     0.0000000    -0.0006507     0.0000000

 total amount of memory used by VASP MPI-rank0    72436. kBytes
=======================================================================

   base      :      30000. kBytes
   nonl-proj :      21981. kBytes
   fftplans  :        390. kBytes
   grid      :       1580. kBytes
   one-center:        196. kBytes
   wavefun   :      18289. kBytes
 
  
  
 General timing and accounting informations for this job:
 ========================================================
  
                  Total CPU time used (sec):      144.780
                            User time (sec):      140.312
                          System time (sec):        4.468
                         Elapsed time (sec):      145.015
  
                   Maximum memory used (kb):      139692.
                   Average memory used (kb):           0.
  
                          Minor page faults:       579151
                          Major page faults:           78
                 Voluntary context switches:         2004
