 running on    4 total cores
 distrk:  each k-point on    4 cores,    1 groups
 distr:  one band on    1 cores,    4 groups
 using from now: INCAR     
 vasp.6.1.1 19Jun20 (build Jul 17 2020 22:06:34) complex                        
  
 POSCAR found type information on POSCAR Ce
 POSCAR found :  1 types and       1 ions
 -----------------------------------------------------------------------------
|                                                                             |
|           W    W    AA    RRRRR   N    N  II  N    N   GGGG   !!!           |
|           W    W   A  A   R    R  NN   N  II  NN   N  G    G  !!!           |
|           W    W  A    A  R    R  N N  N  II  N N  N  G       !!!           |
|           W WW W  AAAAAA  RRRRR   N  N N  II  N  N N  G  GGG   !            |
|           WW  WW  A    A  R   R   N   NN  II  N   NN  G    G                |
|           W    W  A    A  R    R  N    N  II  N    N   GGGG   !!!           |
|                                                                             |
|     You use a magnetic or noncollinear calculation, but did not specify     |
|     the initial magnetic moment with the MAGMOM tag. Note that a            |
|     default of 1 will be used for all atoms. This ferromagnetic setup       |
|     may break the symmetry of the crystal, in particular it may rule        |
|     out finding an antiferromagnetic solution. Thence, we recommend         |
|     setting the initial magnetic moment manually or verifying carefully     |
|     that this magnetic setup is desired.                                    |
|                                                                             |
 -----------------------------------------------------------------------------

 scaLAPACK will be used
 LDA part: xc-table for Pade appr. of Perdew
 generate k-points for:   12   12   12
 -----------------------------------------------------------------------------
|                                                                             |
|           W    W    AA    RRRRR   N    N  II  N    N   GGGG   !!!           |
|           W    W   A  A   R    R  NN   N  II  NN   N  G    G  !!!           |
|           W    W  A    A  R    R  N N  N  II  N N  N  G       !!!           |
|           W WW W  AAAAAA  RRRRR   N  N N  II  N  N N  G  GGG   !            |
|           WW  WW  A    A  R   R   N   NN  II  N   NN  G    G                |
|           W    W  A    A  R    R  N    N  II  N    N   GGGG   !!!           |
|                                                                             |
|     Full k-point grid generated. Inversion symmetry is not applied.         |
|                                                                             |
 -----------------------------------------------------------------------------

 POSCAR, INCAR and KPOINTS ok, starting setup
 FFT: planning ...
 WAVECAR not read
 entering main loop
       N       E                     dE             d eps       ncg     rms          rms(c)
DAV:   1     0.946715602386E+02    0.94672E+02   -0.30491E+03 14224   0.748E+02
DAV:   2     0.410458073122E+01   -0.90567E+02   -0.85584E+02 16704   0.199E+02
DAV:   3    -0.608076751639E+01   -0.10185E+02   -0.96633E+01 18536   0.706E+01
DAV:   4    -0.654612760937E+01   -0.46536E+00   -0.45841E+00 26944   0.142E+01
DAV:   5    -0.656711805457E+01   -0.20990E-01   -0.20927E-01 20744   0.347E+00    0.101E+01
DAV:   6    -0.665196854869E+01   -0.84850E-01   -0.98746E+00 20504   0.204E+01    0.592E+00
DAV:   7    -0.634013155835E+01    0.31184E+00   -0.45631E+00 22096   0.181E+01    0.360E+00
DAV:   8    -0.628692069424E+01    0.53211E-01   -0.38427E-01 25616   0.427E+00    0.167E+00
DAV:   9    -0.628657611264E+01    0.34458E-03   -0.13432E-01 24544   0.226E+00    0.444E-01
DAV:  10    -0.628895252525E+01   -0.23764E-02   -0.10397E-02 24472   0.588E-01    0.402E-01
DAV:  11    -0.628837435320E+01    0.57817E-03   -0.65975E-03 23920   0.645E-01    0.942E-02
DAV:  12    -0.628838407055E+01   -0.97174E-05   -0.42090E-04 25288   0.146E-01    0.752E-02
DAV:  13    -0.628838993377E+01   -0.58632E-05   -0.11997E-04 24168   0.880E-02    0.408E-02
DAV:  14    -0.628839467231E+01   -0.47385E-05   -0.55338E-05 24824   0.523E-02    0.167E-02
DAV:  15    -0.628839218560E+01    0.24867E-05   -0.10302E-05 25376   0.248E-02    0.176E-02
DAV:  16    -0.628839166484E+01    0.52076E-06   -0.16407E-06 24456   0.942E-03    0.931E-03
DAV:  17    -0.628838609869E+01    0.55661E-05   -0.11447E-06 26600   0.773E-03    0.526E-03
DAV:  18    -0.628838718940E+01   -0.10907E-05   -0.27691E-07 21704   0.405E-03    0.179E-03
DAV:  19    -0.628838763119E+01   -0.44179E-06   -0.17820E-07 17592   0.297E-03    0.420E-04
DAV:  20    -0.628838748061E+01    0.15058E-06   -0.15192E-07 15024   0.267E-03    0.601E-04
DAV:  21    -0.628838770193E+01   -0.22132E-06   -0.48715E-08 14704   0.155E-03    0.107E-04
DAV:  22    -0.628838771504E+01   -0.13109E-07   -0.33128E-08 11744   0.126E-03    0.590E-05
DAV:  23    -0.628838771020E+01    0.48401E-08   -0.15400E-08 10448   0.879E-04
   1 F= -.62883877E+01 E0= -.62875088E+01  d E =-.351576E-02  mag=    -0.0129    -0.0129    -0.0129
 writing wavefunctions
