Ce                                      
           1
     0.000000    2.360000    2.360000
     2.360000    0.000000    2.360000
     2.360000    2.360000    0.000000
   Ce
     1
Direct configuration=     1
   0.00000000  0.00000000  0.00000000
